
Running Job 1 of 1 H-CHA.in
qchem H-CHA.in_34634.0 /scr/lance/153880/qchem34634/ 0
/home/mgcf/software-ws/qchem/qchem_541/exe/qcprog.exe_s H-CHA.in_34634.0 /scr/lance/153880/qchem34634/
                  Welcome to Q-Chem
     A Quantum Leap Into The Future Of Chemistry


 Q-Chem 5.4, Q-Chem, Inc., Pleasanton, CA (2021)

 E. Epifanovsky,  A. T. B. Gilbert,  Xintian Feng,  Joonho Lee,  Yuezhi Mao,  
 N. Mardirossian,  P. Pokhilko,  A. White,  M. Wormit,  M. P. Coons,  
 A. L. Dempwolff,  Zhengting Gan,  D. Hait,  P. R. Horn,  L. D. Jacobson,  
 I. Kaliman,  J. Kussmann,  A. W. Lange,  Ka Un Lao,  D. S. Levine,  Jie Liu,  
 S. C. McKenzie,  A. F. Morrison,  K. Nanda,  F. Plasser,  D. R. Rehn,  
 M. L. Vidal,  Zhi-Qiang You,  Ying Zhu,  B. Alam,  B. Albrecht,  
 A. Aldossary,  E. Alguire,  J. H. Andersen,  D. Barton,  K. Begam,  A. Behn,  
 Y. A. Bernard,  E. J. Berquist,  H. Burton,  A. Carreras,  K. Carter-Fenk,  
 R. Chakraborty,  A. D. Chien,  K. D. Closser,  V. Cofer-Shabica,  
 S. Dasgupta,  Jia Deng,  M. de Wergifosse,  M. Diedenhofen,  Hainam Do,  
 S. Ehlert,  Po-Tung Fang,  S. Fatehi,  Qingguo Feng,  T. Friedhoff,  
 J. Gayvert,  Qinghui Ge,  G. Gidofalvi,  M. Goldey,  J. Gomes,  
 C. Gonzalez-Espinoza,  S. Gulania,  A. Gunina,  M. W. D. Hanson-Heine,  
 P. H. P. Harbach,  A. W. Hauser,  M. F. Herbst,  M. Hernandez Vera,  
 M. Hodecker,  Z. C. Holden,  S. Houck,  Xunkun Huang,  Kerwin Hui,  
 B. C. Huynh,  M. Ivanov,  Hyunjun Ji,  Hanjie Jiang,  B. Kaduk,  S. Kaehler,  
 K. Khistyaev,  Jaehoon Kim,  P. Klunzinger,  Z. Koczor-Benda,  
 Joong Hoon Koh,  D. Kosenkov,  L. Koulias,  T. Kowalczyk,  C. M. Krauter,  
 K. Kue,  A. Kunitsa,  T. Kus,  A. Landau,  K. V. Lawler,  D. Lefrancois,  
 S. Lehtola,  Rain Li,  Yi-Pei Li,  Jiashu Liang,  M. Liebenthal,  
 Hung-Hsuan Lin,  You-Sheng Lin,  Fenglai Liu,  Kuan-Yu Liu,  
 M. Loipersberger,  A. Luenser,  A. Manjanath,  P. Manohar,  E. Mansoor,  
 S. F. Manzer,  Shan-Ping Mao,  A. V. Marenich,  T. Markovich,  S. Mason,  
 S. A. Maurer,  P. F. McLaughlin,  M. F. S. J. Menger,  J.-M. Mewes,  
 S. A. Mewes,  P. Morgante,  J. W. Mullinax,  K. J. Oosterbaan,  G. Paran,  
 Alexander C. Paul,  Suranjan K. Paul,  F. Pavosevic,  Zheng Pei,  S. Prager,  
 E. I. Proynov,  E. Ramos,  B. Rana,  A. E. Rask,  A. Rettig,  R. M. Richard,  
 F. Rob,  E. Rossomme,  T. Scheele,  M. Scheurer,  M. Schneider,  
 N. Sergueev,  S. M. Sharada,  W. Skomorowski,  D. W. Small,  C. J. Stein,  
 Yu-Chuan Su,  E. J. Sundstrom,  Zhen Tao,  J. Thirman,  T. Tsuchimochi,  
 N. M. Tubman,  S. P. Veccham,  O. Vydrov,  J. Wenzel,  J. Witte,  A. Yamada,  
 Kun Yao,  S. Yeganeh,  S. R. Yost,  A. Zech,  Igor Ying Zhang,  Xing Zhang,  
 Yu Zhang,  D. Zuev,  A. Aspuru-Guzik,  A. T. Bell,  N. A. Besley,  
 K. B. Bravaya,  B. R. Brooks,  D. Casanova,  Jeng-Da Chai,  S. Coriani,  
 C. J. Cramer,  A. E. DePrince, III,  R. A. DiStasio Jr.,  A. Dreuw,  
 B. D. Dunietz,  T. R. Furlani,  W. A. Goddard III,  S. Grimme,  
 S. Hammes-Schiffer,  T. Head-Gordon,  W. J. Hehre,  Chao-Ping Hsu,  
 T.-C. Jagau,  Yousung Jung,  A. Klamt,  Jing Kong,  D. S. Lambrecht,  
 WanZhen Liang,  N. J. Mayhall,  C. W. McCurdy,  J. B. Neaton,  
 C. Ochsenfeld,  J. A. Parkhill,  R. Peverati,  V. A. Rassolov,  Yihan Shao,  
 L. V. Slipchenko,  T. Stauch,  R. P. Steele,  J. E. Subotnik,  
 A. J. W. Thom,  A. Tkatchenko,  D. G. Truhlar,  T. Van Voorhis,  
 T. A. Wesolowski,  K. B. Whaley,  H. L. Woodcock III,  P. M. Zimmerman,  
 S. Faraji,  P. M. W. Gill,  M. Head-Gordon,  J. M. Herbert,  A. I. Krylov

 Additional authors for Version 5.4.1: 
 S. Kotaru,  Shaozhi Li,  Xiangyuan Li,  F. Matz,  A. Molle,  Haisheng Ren,  
 Yingli Su,  Hung-Yi Tsai,  C. Utku,  Fang Wang

 Contributors to earlier versions of Q-Chem not listed above: 
 R. D. Adamson,  B. Austin,  R. Baer,  J. Baker,  G. J. O. Beran,  
 K. Brandhorst,  S. T. Brown,  E. F. C. Byrd,  A. K. Chakraborty,  
 G. K. L. Chan,  Chun-Min Chang,  Yunqing Chen,  C.-L. Cheng,  
 Siu Hung Chien,  D. M. Chipman,  D. L. Crittenden,  H. Dachsel,  
 R. J. Doerksen,  A. D. Dutoi,  R. G. Edgar,  J. Fosso-Tande,  
 L. Fusti-Molnar,  D. Ghosh,  A. Ghysels,  A. Golubeva-Zadorozhnaya,  
 J. Gonthier,  M. S. Gordon,  S. R. Gwaltney,  G. Hawkins,  J. E. Herr,  
 A. Heyden,  S. Hirata,  E. G. Hohenstein,  G. Kedziora,  F. J. Keil,  
 C. Kelley,  Jihan Kim,  R. A. King,  R. Z. Khaliullin,  P. P. Korambath,  
 W. Kurlancheek,  A. Laurent,  A. M. Lee,  M. S. Lee,  S. V. Levchenko,  
 Ching Yeh Lin,  D. Liotard,  E. Livshits,  R. C. Lochan,  I. Lotan,  
 L. A. Martinez-Martinez,  P. E. Maslen,  N. Nair,  D. P. O'Neill,  
 D. Neuhauser,  E. Neuscamman,  C. M. Oana,  R. Olivares-Amaya,  R. Olson,  
 T. M. Perrine,  B. Peters,  P. A. Pieniazek,  A. Prociuk,  Y. M. Rhee,  
 J. Ritchie,  M. A. Rohrdanz,  E. Rosta,  N. J. Russ,  H. F. Schaefer III,  
 M. W. Schmidt,  N. E. Schultz,  S. Sharma,  N. Shenvi,  C. D. Sherrill,  
 A. C. Simmonett,  A. Sodt,  T. Stein,  D. Stuck,  K. S. Thanthiriwatte,  
 V. Vanovschi,  L. Vogt,  Tao Wang,  A. Warshel,  M. A. Watson,  
 C. F. Williams,  Q. Wu,  X. Xu,  Jun Yang,  W. Zhang,  Yan Zhao

 Please cite Q-Chem as follows:
 Y. Shao et al., Mol. Phys. 113, 184-215 (2015)
 DOI: 10.1080/00268976.2014.952696

 Q-Chem 5.4.1 for Intel X86 EM64T Linux

 Parts of Q-Chem use Armadillo 9.800.1 (Horizon Scraper).
 http://arma.sourceforge.net/

 Q-Chem begins on Fri Sep 10 14:42:46 2021  

 Host: 
0

     Scratch files written to /scr/lance/153880/qchem34634//
 Aug1521 |scratch|qcdevops|jenkins|workspace|build_RNUM -1
 Processing $rem in /home/mgcf/software-ws/qchem/qchem_541/config/preferences:
 Processing $rem in /home/lance/.qchemrc:
Applying user defined connections for MM calculations

 Checking the input file for inconsistencies... 	...done.

--------------------------------------------------------------
User input:
--------------------------------------------------------------
$rem
jobtype		freq
gui     	2
!vibman_print	4
max_scf_cycles  500
geom_opt_max_cycles 999
exchange 	omegab97x-d
basis def2-svp
!basis		6-311+G(3df,3pd)
scf_algorithm 	rca_diis
QM_MM_INTERFACE Zeolite
force_field   	charmm27
user_connect   	true
symmetry  	 off
sym_ignore   	true
print_input   	true
qmmm_print   	false
qm_mm   	true
model_system_mult 1
qmmm_full_hessian 	false
mem_total   10000000
mem_static   10000
pop_mulliken 	false
!nbo	true
isotopes true
$end

$qm_atoms
1
2
3
4
5
6
7
8
9
10
11
12
13
14
15
16
17
18
19
20
21
22
23
24
25
26
27
28
29
30
31
32
33
34
35
36
37
38
39
40
41
42
43
44
45
46
47
48
49
50
51
52
53
54
$end

$isotopes
1 0
26
55 100000000000000000
56 100000000000000000
57 100000000000000000
58 100000000000000000
59 100000000000000000
60 100000000000000000
61 100000000000000000
62 100000000000000000
63 100000000000000000
64 100000000000000000
65 100000000000000000
66 100000000000000000
67 100000000000000000
68 100000000000000000
69 100000000000000000
70 100000000000000000
71 100000000000000000
72 100000000000000000
73 100000000000000000
74 100000000000000000
75 100000000000000000
76 100000000000000000
77 100000000000000000
78 100000000000000000
79 100000000000000000
80 100000000000000000
$end

$comment
Atom   type   and   names
-1   Oxygen   in   SiO4
-2   Silicon   in   SiO4
-3   H for terminal in SiO4
-4   H hydrolysis
-23  Si right out of T5 and has one connectin to QM
-22  Si right out of T5 and has two connectin to QM
$end

$opt
fixed
55 XYZ
56 XYZ
57 XYZ
58 XYZ
59 XYZ
60 XYZ
61 XYZ
62 XYZ
63	XYZ
64	XYZ
65	XYZ
66	XYZ
67	XYZ
68	XYZ
69	XYZ
70	XYZ
71	XYZ
72	XYZ
73	XYZ
74	XYZ
75	XYZ
76	XYZ
77	XYZ
78	XYZ
79	XYZ
80	XYZ
81	XYZ
82	XYZ
83	XYZ
84	XYZ
85	XYZ
86	XYZ
87	XYZ
88	XYZ
89	XYZ
90	XYZ
91	XYZ
92	XYZ
93	XYZ
94	XYZ
95	XYZ
96	XYZ
97	XYZ
98	XYZ
99	XYZ
100	XYZ
101	XYZ
102	XYZ
103	XYZ
104	XYZ
105	XYZ
106	XYZ
107	XYZ
108	XYZ
109	XYZ
110	XYZ
111	XYZ
112	XYZ
113	XYZ
114	XYZ
115	XYZ
116	XYZ
117	XYZ
118	XYZ
119	XYZ
120	XYZ
121	XYZ
122	XYZ
123	XYZ
124	XYZ
125	XYZ
126	XYZ
127	XYZ
128	XYZ
129	XYZ
130	XYZ
131	XYZ
132	XYZ
133	XYZ
134	XYZ
135	XYZ
136	XYZ
137	XYZ
138	XYZ
139	XYZ
140	XYZ
141	XYZ
142	XYZ
143	XYZ
144	XYZ
145	XYZ
146	XYZ
147	XYZ
148	XYZ
149	XYZ
150	XYZ
151	XYZ
152	XYZ
153	XYZ
154	XYZ
155	XYZ
156	XYZ
157	XYZ
158	XYZ
159	XYZ
160	XYZ
161	XYZ
162	XYZ
163	XYZ
164	XYZ
165	XYZ
166	XYZ
167	XYZ
168	XYZ
169	XYZ
170	XYZ
171	XYZ
172	XYZ
173	XYZ
174	XYZ
175	XYZ
176	XYZ
177	XYZ
178	XYZ
179	XYZ
180	XYZ
181	XYZ
182	XYZ
183	XYZ
184	XYZ
185	XYZ
186	XYZ
187	XYZ
188	XYZ
189	XYZ
190	XYZ
191	XYZ
192	XYZ
193	XYZ
194	XYZ
195	XYZ
196	XYZ
197	XYZ
198	XYZ
199	XYZ
200	XYZ
201	XYZ
202	XYZ
203	XYZ
204	XYZ
205	XYZ
206	XYZ
207	XYZ
208	XYZ
209	XYZ
210	XYZ
211	XYZ
212	XYZ
213	XYZ
214	XYZ
215	XYZ
216	XYZ
217	XYZ
218	XYZ
219	XYZ
220	XYZ
221	XYZ
222	XYZ
223	XYZ
224	XYZ
225	XYZ
226	XYZ
227	XYZ
228	XYZ
229	XYZ
230	XYZ
231	XYZ
232	XYZ
233	XYZ
234	XYZ
235	XYZ
236	XYZ
237	XYZ
238	XYZ
239	XYZ
240	XYZ
241	XYZ
242	XYZ
243	XYZ
244	XYZ
245	XYZ
246	XYZ
247	XYZ
248	XYZ
249	XYZ
250	XYZ
251	XYZ
252	XYZ
253	XYZ
254	XYZ
255	XYZ
256	XYZ
257	XYZ
258	XYZ
259	XYZ
260	XYZ
261	XYZ
262	XYZ
263	XYZ
264	XYZ
265	XYZ
266	XYZ
267	XYZ
268	XYZ
269	XYZ
270	XYZ
271	XYZ
272	XYZ
273	XYZ
274	XYZ
275	XYZ
276	XYZ
277	XYZ
278	XYZ
279	XYZ
280	XYZ
281	XYZ
282	XYZ
283	XYZ
284	XYZ
285	XYZ
286	XYZ
287	XYZ
288	XYZ
289	XYZ
290	XYZ
291	XYZ
292	XYZ
293	XYZ
294	XYZ
295	XYZ
296	XYZ
297	XYZ
298	XYZ
299	XYZ
300	XYZ
301	XYZ
302	XYZ
303	XYZ
304	XYZ
305	XYZ
306	XYZ
307	XYZ
308	XYZ
309	XYZ
310	XYZ
311	XYZ
312	XYZ
313	XYZ
314	XYZ
315	XYZ
316	XYZ
317	XYZ
318	XYZ
319	XYZ
320	XYZ
321	XYZ
322	XYZ
323	XYZ
324	XYZ
325	XYZ
326	XYZ
327	XYZ
328	XYZ
329	XYZ
330	XYZ
331	XYZ
332	XYZ
333	XYZ
334	XYZ
335	XYZ
336	XYZ
337	XYZ
338	XYZ
339	XYZ
340	XYZ
341	XYZ
342	XYZ
343	XYZ
344	XYZ
345	XYZ
346	XYZ
347	XYZ
348	XYZ
349	XYZ
350	XYZ
351	XYZ
352	XYZ
353	XYZ
354	XYZ
355	XYZ
356	XYZ
357	XYZ
358	XYZ
359	XYZ
360	XYZ
361	XYZ
362	XYZ
363	XYZ
364	XYZ
365	XYZ
366	XYZ
367	XYZ
368	XYZ
369	XYZ
370	XYZ
371	XYZ
372	XYZ
373	XYZ
374	XYZ
375	XYZ
376	XYZ
377	XYZ
378	XYZ
379	XYZ
380	XYZ
381	XYZ
382	XYZ
383	XYZ
384	XYZ
385	XYZ
386	XYZ
387	XYZ
388	XYZ
389	XYZ
390	XYZ
391	XYZ
392	XYZ
393	XYZ
394	XYZ
395	XYZ
396	XYZ
397	XYZ
398	XYZ
399	XYZ
400	XYZ
401	XYZ
402	XYZ
403	XYZ
404	XYZ
405	XYZ
406	XYZ
407	XYZ
408	XYZ
409	XYZ
410	XYZ
411	XYZ
412	XYZ
413	XYZ
414	XYZ
415	XYZ
416	XYZ
417	XYZ
418	XYZ
419	XYZ
420	XYZ
421	XYZ
422	XYZ
423	XYZ
424	XYZ
425	XYZ
426	XYZ
427	XYZ
428	XYZ
429	XYZ
430	XYZ
431	XYZ
432	XYZ
433	XYZ
434	XYZ
435	XYZ
436	XYZ
437	XYZ
438	XYZ
439	XYZ
440	XYZ
441	XYZ
442	XYZ
443	XYZ
444	XYZ
445	XYZ
446	XYZ
447	XYZ
448	XYZ
449	XYZ
450	XYZ
451	XYZ
452	XYZ
453	XYZ
454	XYZ
455	XYZ
456	XYZ
457	XYZ
458	XYZ
459	XYZ
460	XYZ
461	XYZ
462	XYZ
463	XYZ
464	XYZ
465	XYZ
466	XYZ
467	XYZ
468	XYZ
469	XYZ
470	XYZ
471	XYZ
472	XYZ
473	XYZ
474	XYZ
475	XYZ
476	XYZ
477	XYZ
478	XYZ
479	XYZ
480	XYZ
481	XYZ
482	XYZ
483	XYZ
484	XYZ
485	XYZ
486	XYZ
487	XYZ
488	XYZ
489	XYZ
490	XYZ
491	XYZ
492	XYZ
493	XYZ
494	XYZ
495	XYZ
496	XYZ
497	XYZ
498	XYZ
499	XYZ
500	XYZ
501	XYZ
502	XYZ
503	XYZ
504	XYZ
505	XYZ
506	XYZ
507	XYZ
508	XYZ
509	XYZ
510	XYZ
511	XYZ
512	XYZ
513	XYZ
514	XYZ
515	XYZ
516	XYZ
517	XYZ
518	XYZ
519	XYZ
520	XYZ
521	XYZ
522	XYZ
523	XYZ
524	XYZ
525	XYZ
526	XYZ
527	XYZ
528	XYZ
529	XYZ
530	XYZ
531	XYZ
532	XYZ
533	XYZ
534	XYZ
535	XYZ
536	XYZ
537	XYZ
538	XYZ
539	XYZ
540	XYZ
541	XYZ
542	XYZ
543	XYZ
544	XYZ
545	XYZ
546	XYZ
547	XYZ
548	XYZ
549	XYZ
550	XYZ
551	XYZ
552	XYZ
553	XYZ
554	XYZ
555	XYZ
556	XYZ
557	XYZ
558	XYZ
559	XYZ
560	XYZ
561	XYZ
562	XYZ
563	XYZ
564	XYZ
565	XYZ
566	XYZ
567	XYZ
568	XYZ
569	XYZ
570	XYZ
571	XYZ
572	XYZ
573	XYZ
574	XYZ
575	XYZ
576	XYZ
577	XYZ
578	XYZ
579	XYZ
580	XYZ
581	XYZ
582	XYZ
583	XYZ
584	XYZ
585	XYZ
586	XYZ
587	XYZ
588	XYZ
589	XYZ
590	XYZ
591	XYZ
592	XYZ
593	XYZ
594	XYZ
595	XYZ
596	XYZ
597	XYZ
598	XYZ
599	XYZ
600	XYZ
601	XYZ
602	XYZ
603	XYZ
604	XYZ
605	XYZ
606	XYZ
607	XYZ
608	XYZ
609	XYZ
610	XYZ
611	XYZ
612	XYZ
613	XYZ
614	XYZ
615	XYZ
616	XYZ
617	XYZ
618	XYZ
619	XYZ
620	XYZ
621	XYZ
622	XYZ
623	XYZ
624	XYZ
625	XYZ
626	XYZ
627	XYZ
628	XYZ
629	XYZ
630	XYZ
631	XYZ
632	XYZ
633	XYZ
634	XYZ
635	XYZ
636	XYZ
637	XYZ
638	XYZ
639	XYZ
640	XYZ
641	XYZ
642	XYZ
643	XYZ
644	XYZ
645	XYZ
646	XYZ
647	XYZ
648	XYZ
649	XYZ
650	XYZ
651	XYZ
652	XYZ
653	XYZ
654	XYZ
655	XYZ
656	XYZ
657	XYZ
658	XYZ
659	XYZ
660	XYZ
661	XYZ
662	XYZ
663	XYZ
664	XYZ
665	XYZ
666	XYZ
667	XYZ
668	XYZ
669	XYZ
670	XYZ
671	XYZ
672	XYZ
673	XYZ
674	XYZ
675	XYZ
676	XYZ
677	XYZ
678	XYZ
679	XYZ
680	XYZ
681	XYZ
682	XYZ
683	XYZ
684	XYZ
685	XYZ
686	XYZ
687	XYZ
688	XYZ
689	XYZ
690	XYZ
691	XYZ
692	XYZ
693	XYZ
694	XYZ
695	XYZ
696	XYZ
697	XYZ
698	XYZ
699	XYZ
700	XYZ
701	XYZ
702	XYZ
703	XYZ
704	XYZ
705	XYZ
706	XYZ
707	XYZ
708	XYZ
709	XYZ
710	XYZ
711	XYZ
712	XYZ
713	XYZ
714	XYZ
715	XYZ
716	XYZ
717	XYZ
718	XYZ
719	XYZ
720	XYZ
721	XYZ
722	XYZ
723	XYZ
724	XYZ
725	XYZ
726	XYZ
727	XYZ
728	XYZ
729	XYZ
730	XYZ
731	XYZ
732	XYZ
733	XYZ
734	XYZ
735	XYZ
736	XYZ
737	XYZ
738	XYZ
739	XYZ
740	XYZ
741	XYZ
742	XYZ
743	XYZ
744	XYZ
745	XYZ
746	XYZ
747	XYZ
748	XYZ
749	XYZ
750	XYZ
751	XYZ
752	XYZ
753	XYZ
754	XYZ
755	XYZ
756	XYZ
757	XYZ
758	XYZ
759	XYZ
760	XYZ
761	XYZ
762	XYZ
763	XYZ
764	XYZ
765	XYZ
766	XYZ
767	XYZ
768	XYZ
769	XYZ
770	XYZ
771	XYZ
772	XYZ
773	XYZ
774	XYZ
775	XYZ
776	XYZ
777	XYZ
778	XYZ
779	XYZ
780	XYZ
781	XYZ
782	XYZ
783	XYZ
784	XYZ
785	XYZ
786	XYZ
787	XYZ
788	XYZ
789	XYZ
790	XYZ
791	XYZ
792	XYZ
793	XYZ
794	XYZ
795	XYZ
796	XYZ
797	XYZ
798	XYZ
799	XYZ
800	XYZ
801	XYZ
802	XYZ
803	XYZ
804	XYZ
805	XYZ
806	XYZ
807	XYZ
808	XYZ
809	XYZ
810	XYZ
811	XYZ
812	XYZ
813	XYZ
814	XYZ
815	XYZ
816	XYZ
817	XYZ
818	XYZ
819	XYZ
820	XYZ
821	XYZ
822	XYZ
823	XYZ
824	XYZ
825	XYZ
826	XYZ
827	XYZ
828	XYZ
829	XYZ
830	XYZ
831	XYZ
832	XYZ
833	XYZ
834	XYZ
835	XYZ
836	XYZ
837	XYZ
838	XYZ
839	XYZ
840	XYZ
841	XYZ
842	XYZ
843	XYZ
844	XYZ
845	XYZ
846	XYZ
847	XYZ
848	XYZ
849	XYZ
850	XYZ
851	XYZ
852	XYZ
853	XYZ
854	XYZ
855	XYZ
856	XYZ
857	XYZ
858	XYZ
859	XYZ
860	XYZ
861	XYZ
862	XYZ
863	XYZ
864	XYZ
865	XYZ
866	XYZ
867	XYZ
868	XYZ
869	XYZ
870	XYZ
871	XYZ
872	XYZ
873	XYZ
874	XYZ
875	XYZ
876	XYZ
877	XYZ
878	XYZ
879	XYZ
880	XYZ
881	XYZ
882	XYZ
883	XYZ
884	XYZ
885	XYZ
886	XYZ
887	XYZ
888	XYZ
889	XYZ
890	XYZ
891	XYZ
892	XYZ
893	XYZ
894	XYZ
895	XYZ
896	XYZ
897	XYZ
898	XYZ
899	XYZ
900	XYZ
901	XYZ
902	XYZ
903	XYZ
904	XYZ
905	XYZ
906	XYZ
907	XYZ
908	XYZ
909	XYZ
910	XYZ
911	XYZ
912	XYZ
913	XYZ
914	XYZ
915	XYZ
916	XYZ
917	XYZ
918	XYZ
919	XYZ
920	XYZ
921	XYZ
922	XYZ
923	XYZ
924	XYZ
925	XYZ
926	XYZ
927	XYZ
928	XYZ
929	XYZ
930	XYZ
931	XYZ
932	XYZ
933	XYZ
934	XYZ
935	XYZ
936	XYZ
937	XYZ
938	XYZ
939	XYZ
940	XYZ
941	XYZ
942	XYZ
943	XYZ
944	XYZ
945	XYZ
946	XYZ
947	XYZ
948	XYZ
949	XYZ
950	XYZ
951	XYZ
952	XYZ
953	XYZ
954	XYZ
955	XYZ
956	XYZ
957	XYZ
958	XYZ
959	XYZ
960	XYZ
961	XYZ
962	XYZ
963	XYZ
964	XYZ
965	XYZ
966	XYZ
967	XYZ
968	XYZ
969	XYZ
970	XYZ
971	XYZ
972	XYZ
973	XYZ
974	XYZ
975	XYZ
976	XYZ
977	XYZ
978	XYZ
979	XYZ
980	XYZ
981	XYZ
982	XYZ
983	XYZ
984	XYZ
985	XYZ
986	XYZ
987	XYZ
988	XYZ
989	XYZ
990	XYZ
991	XYZ
992	XYZ
993	XYZ
994	XYZ
995	XYZ
996	XYZ
997	XYZ
998	XYZ
999	XYZ
1000	XYZ
1001	XYZ
1002	XYZ
1003	XYZ
1004	XYZ
1005	XYZ
1006	XYZ
1007	XYZ
1008	XYZ
1009	XYZ
1010	XYZ
1011	XYZ
1012	XYZ
1013	XYZ
1014	XYZ
1015	XYZ
1016	XYZ
1017	XYZ
1018	XYZ
1019	XYZ
1020	XYZ
1021	XYZ
1022	XYZ
1023	XYZ
1024	XYZ
1025	XYZ
1026	XYZ
1027	XYZ
1028	XYZ
1029	XYZ
1030	XYZ
1031	XYZ
1032	XYZ
1033	XYZ
1034	XYZ
1035	XYZ
1036	XYZ
1037	XYZ
1038	XYZ
1039	XYZ
1040	XYZ
1041	XYZ
1042	XYZ
1043	XYZ
1044	XYZ
1045	XYZ
1046	XYZ
1047	XYZ
1048	XYZ
1049	XYZ
1050	XYZ
1051	XYZ
1052	XYZ
1053	XYZ
1054	XYZ
1055	XYZ
1056	XYZ
1057	XYZ
1058	XYZ
1059	XYZ
1060	XYZ
1061	XYZ
1062	XYZ
1063	XYZ
1064	XYZ
1065	XYZ
1066	XYZ
1067	XYZ
1068	XYZ
1069	XYZ
1070	XYZ
1071	XYZ
1072	XYZ
1073	XYZ
1074	XYZ
1075	XYZ
1076	XYZ
1077	XYZ
1078	XYZ
1079	XYZ
1080	XYZ
1081	XYZ
1082	XYZ
1083	XYZ
1084	XYZ
1085	XYZ
1086	XYZ
1087	XYZ
1088	XYZ
1089	XYZ
1090	XYZ
1091	XYZ
1092	XYZ
1093	XYZ
1094	XYZ
1095	XYZ
1096	XYZ
1097	XYZ
1098	XYZ
1099	XYZ
1100	XYZ
1101	XYZ
1102	XYZ
1103	XYZ
1104	XYZ
1105	XYZ
1106	XYZ
1107	XYZ
1108	XYZ
1109	XYZ
1110	XYZ
1111	XYZ
1112	XYZ
1113	XYZ
1114	XYZ
1115	XYZ
1116	XYZ
1117	XYZ
1118	XYZ
1119	XYZ
1120	XYZ
1121	XYZ
1122	XYZ
1123	XYZ
1124	XYZ
1125	XYZ
1126	XYZ
1127	XYZ
1128	XYZ
1129	XYZ
1130	XYZ
1131	XYZ
1132	XYZ
1133	XYZ
1134	XYZ
1135	XYZ
1136	XYZ
1137	XYZ
1138	XYZ
1139	XYZ
1140	XYZ
1141	XYZ
1142	XYZ
1143	XYZ
1144	XYZ
1145	XYZ
1146	XYZ
1147	XYZ
1148	XYZ
1149	XYZ
1150	XYZ
1151	XYZ
1152	XYZ
1153	XYZ
1154	XYZ
1155	XYZ
1156	XYZ
1157	XYZ
1158	XYZ
1159	XYZ
1160	XYZ
1161	XYZ
1162	XYZ
1163	XYZ
1164	XYZ
1165	XYZ
1166	XYZ
1167	XYZ
1168	XYZ
1169	XYZ
1170	XYZ
1171	XYZ
1172	XYZ
1173	XYZ
1174	XYZ
1175	XYZ
1176	XYZ
1177	XYZ
1178	XYZ
1179	XYZ
1180	XYZ
1181	XYZ
1182	XYZ
1183	XYZ
1184	XYZ
1185	XYZ
1186	XYZ
1187	XYZ
1188	XYZ
1189	XYZ
1190	XYZ
1191	XYZ
1192	XYZ
1193	XYZ
1194	XYZ
1195	XYZ
1196	XYZ
1197	XYZ
1198	XYZ
1199	XYZ
1200	XYZ
1201	XYZ
1202	XYZ
1203	XYZ
1204	XYZ
1205	XYZ
1206	XYZ
1207	XYZ
1208	XYZ
1209	XYZ
1210	XYZ
1211	XYZ
1212	XYZ
1213	XYZ
1214	XYZ
1215	XYZ
1216	XYZ
1217	XYZ
1218	XYZ
1219	XYZ
1220	XYZ
1221	XYZ
1222	XYZ
1223	XYZ
1224	XYZ
1225	XYZ
1226	XYZ
1227	XYZ
1228	XYZ
1229	XYZ
1230	XYZ
1231	XYZ
1232	XYZ
1233	XYZ
1234	XYZ
1235	XYZ
1236	XYZ
1237	XYZ
1238	XYZ
1239	XYZ
1240	XYZ
1241	XYZ
1242	XYZ
1243	XYZ
1244	XYZ
1245	XYZ
1246	XYZ
1247	XYZ
1248	XYZ
1249	XYZ
1250	XYZ
1251	XYZ
1252	XYZ
1253	XYZ
1254	XYZ
1255	XYZ
1256	XYZ
1257	XYZ
1258	XYZ
1259	XYZ
1260	XYZ
1261	XYZ
1262	XYZ
1263	XYZ
1264	XYZ
1265	XYZ
1266	XYZ
1267	XYZ
1268	XYZ
1269	XYZ
1270	XYZ
1271	XYZ
1272	XYZ
1273	XYZ
1274	XYZ
1275	XYZ
1276	XYZ
1277	XYZ
1278	XYZ
1279	XYZ
1280	XYZ
1281	XYZ
1282	XYZ
1283	XYZ
1284	XYZ
1285	XYZ
1286	XYZ
1287	XYZ
1288	XYZ
1289	XYZ
1290	XYZ
1291	XYZ
1292	XYZ
1293	XYZ
1294	XYZ
1295	XYZ
1296	XYZ
1297	XYZ
1298	XYZ
1299	XYZ
1300	XYZ
1301	XYZ
1302	XYZ
1303	XYZ
1304	XYZ
1305	XYZ
1306	XYZ
1307	XYZ
1308	XYZ
1309	XYZ
1310	XYZ
1311	XYZ
1312	XYZ
1313	XYZ
1314	XYZ
1315	XYZ
1316	XYZ
1317	XYZ
1318	XYZ
1319	XYZ
1320	XYZ
1321	XYZ
1322	XYZ
1323	XYZ
1324	XYZ
1325	XYZ
1326	XYZ
1327	XYZ
1328	XYZ
1329	XYZ
1330	XYZ
1331	XYZ
1332	XYZ
1333	XYZ
1334	XYZ
1335	XYZ
1336	XYZ
1337	XYZ
1338	XYZ
1339	XYZ
1340	XYZ
1341	XYZ
1342	XYZ
1343	XYZ
1344	XYZ
1345	XYZ
1346	XYZ
1347	XYZ
1348	XYZ
1349	XYZ
1350	XYZ
1351	XYZ
1352	XYZ
1353	XYZ
1354	XYZ
1355	XYZ
1356	XYZ
1357	XYZ
1358	XYZ
1359	XYZ
1360	XYZ
1361	XYZ
1362	XYZ
1363	XYZ
1364	XYZ
1365	XYZ
1366	XYZ
1367	XYZ
1368	XYZ
1369	XYZ
1370	XYZ
1371	XYZ
1372	XYZ
1373	XYZ
1374	XYZ
1375	XYZ
1376	XYZ
1377	XYZ
1378	XYZ
1379	XYZ
1380	XYZ
1381	XYZ
1382	XYZ
1383	XYZ
1384	XYZ
1385	XYZ
1386	XYZ
1387	XYZ
1388	XYZ
1389	XYZ
1390	XYZ
1391	XYZ
1392	XYZ
1393	XYZ
1394	XYZ
1395	XYZ
1396	XYZ
1397	XYZ
1398	XYZ
1399	XYZ
1400	XYZ
1401	XYZ
1402	XYZ
1403	XYZ
1404	XYZ
1405	XYZ
1406	XYZ
1407	XYZ
1408	XYZ
1409	XYZ
1410	XYZ
1411	XYZ
1412	XYZ
1413	XYZ
1414	XYZ
1415	XYZ
1416	XYZ
1417	XYZ
1418	XYZ
1419	XYZ
1420	XYZ
1421	XYZ
1422	XYZ
1423	XYZ
1424	XYZ
1425	XYZ
1426	XYZ
1427	XYZ
1428	XYZ
1429	XYZ
1430	XYZ
1431	XYZ
1432	XYZ
1433	XYZ
1434	XYZ
1435	XYZ
1436	XYZ
1437	XYZ
1438	XYZ
1439	XYZ
1440	XYZ
1441	XYZ
1442	XYZ
1443	XYZ
1444	XYZ
1445	XYZ
1446	XYZ
1447	XYZ
1448	XYZ
1449	XYZ
1450	XYZ
1451	XYZ
1452	XYZ
1453	XYZ
1454	XYZ
1455	XYZ
1456	XYZ
1457	XYZ
1458	XYZ
1459	XYZ
1460	XYZ
1461	XYZ
1462	XYZ
1463	XYZ
1464	XYZ
1465	XYZ
1466	XYZ
1467	XYZ
1468	XYZ
1469	XYZ
1470	XYZ
1471	XYZ
1472	XYZ
1473	XYZ
1474	XYZ
1475	XYZ
1476	XYZ
1477	XYZ
1478	XYZ
1479	XYZ
1480	XYZ
1481	XYZ
1482	XYZ
1483	XYZ
1484	XYZ
1485	XYZ
1486	XYZ
1487	XYZ
1488	XYZ
1489	XYZ
1490	XYZ
1491	XYZ
1492	XYZ
1493	XYZ
1494	XYZ
1495	XYZ
1496	XYZ
1497	XYZ
1498	XYZ
1499	XYZ
1500	XYZ
1501	XYZ
1502	XYZ
1503	XYZ
1504	XYZ
1505	XYZ
1506	XYZ
1507	XYZ
1508	XYZ
1509	XYZ
1510	XYZ
1511	XYZ
1512	XYZ
1513	XYZ
1514	XYZ
1515	XYZ
1516	XYZ
1517	XYZ
1518	XYZ
1519	XYZ
1520	XYZ
1521	XYZ
1522	XYZ
1523	XYZ
1524	XYZ
1525	XYZ
1526	XYZ
1527	XYZ
1528	XYZ
1529	XYZ
1530	XYZ
1531	XYZ
1532	XYZ
1533	XYZ
1534	XYZ
1535	XYZ
1536	XYZ
1537	XYZ
1538	XYZ
1539	XYZ
1540	XYZ
1541	XYZ
1542	XYZ
1543	XYZ
1544	XYZ
1545	XYZ
1546	XYZ
1547	XYZ
1548	XYZ
1549	XYZ
1550	XYZ
1551	XYZ
1552	XYZ
1553	XYZ
1554	XYZ
1555	XYZ
1556	XYZ
1557	XYZ
1558	XYZ
1559	XYZ
1560	XYZ
1561	XYZ
1562	XYZ
1563	XYZ
1564	XYZ
1565	XYZ
1566	XYZ
1567	XYZ
1568	XYZ
1569	XYZ
1570	XYZ
1571	XYZ
1572	XYZ
1573	XYZ
1574	XYZ
1575	XYZ
1576	XYZ
1577	XYZ
1578	XYZ
1579	XYZ
1580	XYZ
1581	XYZ
1582	XYZ
1583	XYZ
1584	XYZ
1585	XYZ
1586	XYZ
1587	XYZ
1588	XYZ
1589	XYZ
1590	XYZ
1591	XYZ
1592	XYZ
1593	XYZ
1594	XYZ
1595	XYZ
1596	XYZ
1597	XYZ
1598	XYZ
1599	XYZ
1600	XYZ
1601	XYZ
1602	XYZ
1603	XYZ
1604	XYZ
1605	XYZ
1606	XYZ
1607	XYZ
1608	XYZ
1609	XYZ
1610	XYZ
1611	XYZ
1612	XYZ
1613	XYZ
1614	XYZ
1615	XYZ
1616	XYZ
1617	XYZ
1618	XYZ
1619	XYZ
1620	XYZ
1621	XYZ
1622	XYZ
1623	XYZ
1624	XYZ
1625	XYZ
1626	XYZ
1627	XYZ
1628	XYZ
1629	XYZ
1630	XYZ
1631	XYZ
1632	XYZ
1633	XYZ
1634	XYZ
1635	XYZ
1636	XYZ
1637	XYZ
1638	XYZ
1639	XYZ
1640	XYZ
1641	XYZ
1642	XYZ
1643	XYZ
1644	XYZ
1645	XYZ
1646	XYZ
1647	XYZ
1648	XYZ
1649	XYZ
1650	XYZ
1651	XYZ
1652	XYZ
1653	XYZ
1654	XYZ
1655	XYZ
1656	XYZ
1657	XYZ
1658	XYZ
1659	XYZ
1660	XYZ
1661	XYZ
1662	XYZ
1663	XYZ
1664	XYZ
1665	XYZ
1666	XYZ
1667	XYZ
1668	XYZ
1669	XYZ
1670	XYZ
1671	XYZ
1672	XYZ
1673	XYZ
1674	XYZ
1675	XYZ
1676	XYZ
1677	XYZ
1678	XYZ
1679	XYZ
1680	XYZ
1681	XYZ
1682	XYZ
1683	XYZ
1684	XYZ
1685	XYZ
1686	XYZ
1687	XYZ
1688	XYZ
1689	XYZ
1690	XYZ
1691	XYZ
1692	XYZ
1693	XYZ
1694	XYZ
1695	XYZ
1696	XYZ
1697	XYZ
1698	XYZ
1699	XYZ
1700	XYZ
1701	XYZ
1702	XYZ
1703	XYZ
1704	XYZ
1705	XYZ
1706	XYZ
1707	XYZ
1708	XYZ
1709	XYZ
1710	XYZ
1711	XYZ
1712	XYZ
1713	XYZ
1714	XYZ
1715	XYZ
1716	XYZ
1717	XYZ
1718	XYZ
1719	XYZ
1720	XYZ
1721	XYZ
1722	XYZ
1723	XYZ
1724	XYZ
1725	XYZ
1726	XYZ
1727	XYZ
1728	XYZ
1729	XYZ
1730	XYZ
1731	XYZ
1732	XYZ
1733	XYZ
1734	XYZ
1735	XYZ
1736	XYZ
1737	XYZ
1738	XYZ
1739	XYZ
1740	XYZ
1741	XYZ
1742	XYZ
1743	XYZ
1744	XYZ
1745	XYZ
1746	XYZ
1747	XYZ
1748	XYZ
1749	XYZ
1750	XYZ
1751	XYZ
1752	XYZ
1753	XYZ
1754	XYZ
1755	XYZ
1756	XYZ
1757	XYZ
1758	XYZ
1759	XYZ
1760	XYZ
1761	XYZ
1762	XYZ
1763	XYZ
1764	XYZ
1765	XYZ
1766	XYZ
1767	XYZ
1768	XYZ
1769	XYZ
1770	XYZ
1771	XYZ
1772	XYZ
1773	XYZ
1774	XYZ
1775	XYZ
1776	XYZ
1777	XYZ
1778	XYZ
1779	XYZ
1780	XYZ
1781	XYZ
1782	XYZ
1783	XYZ
1784	XYZ
1785	XYZ
1786	XYZ
1787	XYZ
1788	XYZ
1789	XYZ
1790	XYZ
1791	XYZ
1792	XYZ
1793	XYZ
1794	XYZ
1795	XYZ
1796	XYZ
1797	XYZ
1798	XYZ
1799	XYZ
1800	XYZ
1801	XYZ
1802	XYZ
1803	XYZ
1804	XYZ
1805	XYZ
1806	XYZ
1807	XYZ
1808	XYZ
1809	XYZ
1810	XYZ
1811	XYZ
1812	XYZ
1813	XYZ
1814	XYZ
1815	XYZ
1816	XYZ
1817	XYZ
1818	XYZ
1819	XYZ
1820	XYZ
1821	XYZ
1822	XYZ
1823	XYZ
1824	XYZ
1825	XYZ
1826	XYZ
1827	XYZ
1828	XYZ
1829	XYZ
1830	XYZ
1831	XYZ
1832	XYZ
1833	XYZ
1834	XYZ
1835	XYZ
1836	XYZ
1837	XYZ
1838	XYZ
1839	XYZ
1840	XYZ
1841	XYZ
1842	XYZ
1843	XYZ
1844	XYZ
1845	XYZ
1846	XYZ
1847	XYZ
1848	XYZ
1849	XYZ
1850	XYZ
1851	XYZ
1852	XYZ
1853	XYZ
1854	XYZ
1855	XYZ
1856	XYZ
1857	XYZ
1858	XYZ
1859	XYZ
1860	XYZ
1861	XYZ
1862	XYZ
1863	XYZ
1864	XYZ
1865	XYZ
1866	XYZ
1867	XYZ
1868	XYZ
1869	XYZ
1870	XYZ
1871	XYZ
1872	XYZ
1873	XYZ
1874	XYZ
1875	XYZ
1876	XYZ
1877	XYZ
1878	XYZ
1879	XYZ
1880	XYZ
1881	XYZ
1882	XYZ
1883	XYZ
1884	XYZ
1885	XYZ
1886	XYZ
1887	XYZ
1888	XYZ
1889	XYZ
1890	XYZ
1891	XYZ
1892	XYZ
1893	XYZ
1894	XYZ
1895	XYZ
1896	XYZ
1897	XYZ
1898	XYZ
1899	XYZ
1900	XYZ
1901	XYZ
1902	XYZ
1903	XYZ
1904	XYZ
1905	XYZ
1906	XYZ
1907	XYZ
1908	XYZ
1909	XYZ
1910	XYZ
1911	XYZ
1912	XYZ
1913	XYZ
1914	XYZ
1915	XYZ
1916	XYZ
1917	XYZ
1918	XYZ
1919	XYZ
1920	XYZ
1921	XYZ
1922	XYZ
1923	XYZ
1924	XYZ
1925	XYZ
1926	XYZ
1927	XYZ
1928	XYZ
1929	XYZ
1930	XYZ
1931	XYZ
1932	XYZ
1933	XYZ
1934	XYZ
1935	XYZ
1936	XYZ
1937	XYZ
1938	XYZ
1939	XYZ
1940	XYZ
1941	XYZ
1942	XYZ
1943	XYZ
1944	XYZ
1945	XYZ
1946	XYZ
1947	XYZ
1948	XYZ
1949	XYZ
1950	XYZ
1951	XYZ
1952	XYZ
1953	XYZ
1954	XYZ
1955	XYZ
1956	XYZ
1957	XYZ
1958	XYZ
1959	XYZ
1960	XYZ
1961	XYZ
1962	XYZ
1963	XYZ
1964	XYZ
1965	XYZ
1966	XYZ
1967	XYZ
1968	XYZ
1969	XYZ
1970	XYZ
1971	XYZ
1972	XYZ
1973	XYZ
1974	XYZ
1975	XYZ
1976	XYZ
1977	XYZ
1978	XYZ
1979	XYZ
1980	XYZ
1981	XYZ
1982	XYZ
1983	XYZ
1984	XYZ
1985	XYZ
1986	XYZ
1987	XYZ
1988	XYZ
1989	XYZ
1990	XYZ
1991	XYZ
1992	XYZ
1993	XYZ
1994	XYZ
1995	XYZ
1996	XYZ
1997	XYZ
1998	XYZ
1999	XYZ
2000	XYZ
2001	XYZ
2002	XYZ
2003	XYZ
2004	XYZ
2005	XYZ
2006	XYZ
2007	XYZ
2008	XYZ
2009	XYZ
2010	XYZ
2011	XYZ
2012	XYZ
2013	XYZ
2014	XYZ
2015	XYZ
2016	XYZ
2017	XYZ
2018	XYZ
2019	XYZ
2020	XYZ
2021	XYZ
2022	XYZ
2023	XYZ
2024	XYZ
2025	XYZ
2026	XYZ
2027	XYZ
2028	XYZ
2029	XYZ
2030	XYZ
2031	XYZ
2032	XYZ
2033	XYZ
2034	XYZ
2035	XYZ
2036	XYZ
2037	XYZ
2038	XYZ
2039	XYZ
2040	XYZ
2041	XYZ
2042	XYZ
2043	XYZ
2044	XYZ
2045	XYZ
2046	XYZ
2047	XYZ
2048	XYZ
2049	XYZ
2050	XYZ
2051	XYZ
2052	XYZ
2053	XYZ
2054	XYZ
2055	XYZ
2056	XYZ
2057	XYZ
2058	XYZ
2059	XYZ
2060	XYZ
2061	XYZ
2062	XYZ
2063	XYZ
2064	XYZ
2065	XYZ
2066	XYZ
2067	XYZ
2068	XYZ
2069	XYZ
2070	XYZ
2071	XYZ
2072	XYZ
2073	XYZ
2074	XYZ
2075	XYZ
2076	XYZ
2077	XYZ
2078	XYZ
2079	XYZ
2080	XYZ
2081	XYZ
2082	XYZ
2083	XYZ
2084	XYZ
2085	XYZ
2086	XYZ
2087	XYZ
2088	XYZ
2089	XYZ
2090	XYZ
2091	XYZ
2092	XYZ
2093	XYZ
2094	XYZ
2095	XYZ
2096	XYZ
2097	XYZ
2098	XYZ
2099	XYZ
2100	XYZ
2101	XYZ
2102	XYZ
2103	XYZ
2104	XYZ
2105	XYZ
2106	XYZ
2107	XYZ
2108	XYZ
2109	XYZ
2110	XYZ
2111	XYZ
2112	XYZ
2113	XYZ
2114	XYZ
2115	XYZ
2116	XYZ
2117	XYZ
2118	XYZ
2119	XYZ
2120	XYZ
2121	XYZ
2122	XYZ
2123	XYZ
2124	XYZ
2125	XYZ
2126	XYZ
2127	XYZ
2128	XYZ
2129	XYZ
2130	XYZ
2131	XYZ
2132	XYZ
2133	XYZ
2134	XYZ
2135	XYZ
2136	XYZ
2137	XYZ
2138	XYZ
2139	XYZ
2140	XYZ
2141	XYZ
2142	XYZ
2143	XYZ
2144	XYZ
2145	XYZ
2146	XYZ
2147	XYZ
2148	XYZ
2149	XYZ
2150	XYZ
2151	XYZ
2152	XYZ
2153	XYZ
2154	XYZ
2155	XYZ
2156	XYZ
2157	XYZ
2158	XYZ
2159	XYZ
2160	XYZ
2161	XYZ
2162	XYZ
2163	XYZ
2164	XYZ
2165	XYZ
2166	XYZ
2167	XYZ
2168	XYZ
2169	XYZ
2170	XYZ
2171	XYZ
2172	XYZ
2173	XYZ
2174	XYZ
2175	XYZ
2176	XYZ
2177	XYZ
2178	XYZ
2179	XYZ
2180	XYZ
2181	XYZ
2182	XYZ
2183	XYZ
2184	XYZ
2185	XYZ
endfixed
$end


$force_field_params
NumAtomTypes   3000
AtomType   -1   -0.35   1.77   -0.018
AtomType   -13   -0.35   1.77   -0.018
AtomType   -2   0.7   2.2   -0.047
AtomType   -3   -0.175   0.01   0
AtomType   -4    0.175   0.01   0
AtomType   -23   0.525   2.2   -0.047
AtomType   -22   0.35   2.2   -0.047
AtomType   -21   0.175   2.2   -0.047
AtomType   -111   0   1.34   -0.024
AtomType   -112   0   1.34   -0.035
AtomType   -121   0   2.05   -0.078
AtomType   -122   0   2.01   -0.056
AtomType   -912   0   2.175   -0.055
AtomType   -916   0   1.77   -0.1521
AtomType   -901   0   1.32   -0.022
AtomType   -801   0   0.2245   -0.046
AtomType    -31 0   1.9924  -0.07
AtomType    -32 0   2.09    -0.068
AtomType    -33 0   2.08    -0.064
AtomType    -34 0   1.87    -0.18
AtomType    -35 0   2.00    -0.032
AtomType    -41 0   0.2245  -0.046
AtomType    -42 0   0.87    -0.012
AtomType    -43 0   1.1 -0.046
AtomType    -44 0   1.3582  -0.03
AtomType    -45 0   1.26    -0.026
AtomType    -46 0   1.25    -0.031
AtomType    -47 0   1.34    -0.045
AtomType    -51 0   1.765   -0.1921
AtomType    -61 0   1.98    -0.07
AtomType    -62 0   1.89    -0.06
AtomType    -63 0   1.79    -0.18
Bond   -1   -2   304   1.682
Bond   -1   -3   204   1.489
Bond   -2   -3   100   1.45
Angle   -1   -2   -1   34   150
Angle   -2   -1   -2   30   121.5
Angle   -3   -1   -2   44   118
Angle   -1   -2   -3   30   109.5
Torsion   -2   -1   -2   -1   0.1   120   3
Torsion   -2   -1   -2   -3   0.3   120   3
Bond   -121   -122   222.5   1.528
Bond   -121   -121   222.5   1.528
Bond   -122   -122   222.5   1.528
Bond   -111   -121   309   1.089
Bond   -112   -122   309   1.089
Angle   -121   -122   -122   58   115
Angle   -121   -121   -122   58   115
Angle   -121   -121   -121   58   115
Angle   -122   -122   -122   58   115
Angle   -111   -121   -111   35.5   108.4
Angle   -111   -121   -121   35.5   108.4
Angle   -111   -121   -122   35.5   108.4
Angle   -112   -122   -112   35.5   108.4
Angle   -112   -122   -121   35.5   108.4
Angle   -112   -122   -122   35.5   108.4
Torsion   -111   -121   -122   -122   0.16   120   3
Torsion   -111   -121   -121   -121   0.16   120   3
Torsion   -111   -121   -121   -111   0.16   120   3
Torsion   -111   -121   -122   -112   0.16   120   3
Torsion   -112   -122   -122   -122   95.16   180   2
Torsion   -112   -122   -122   -112   95.16   180   2
Torsion   -121   -122   -122   -122   95.16   180   2
Torsion   -121   -122   -122   -112   95.16   180   2
Torsion   -122   -122   -122   -112   95.16   180   2
Torsion   -112   -122   -122   -121   95.16   180   2
Bond   -13   -1   304   1.682
Bond   -13   -121   222.5   1.55
Angle   -13   -121   -121   40   111
Angle   -13   -121   -1   34   150
Angle   -13   -121   -111   35.5   115
Torsion   -1   -13   -121   -121   0.2   120   3
Torsion   -1   -13   -121   -111   0.2   120   3
Bond   -901   -912   342.991   1.093
Bond   -801   -916   560.905   0.972
Bond   -916   -912   363.214   1.418
Bond   -912   -912   306.432   1.508
Angle   -916   -912   -912   71.39   108.133
Angle   -916   -912   -916   83.192   111.368
Angle   -916   -912   -901   56.205   108.577
Angle   -912   -912   -901   45.77   110.549
Angle   -912   -916   -912   86.143   106.926
Angle   -912   -912   -912   61.243   109.608
Angle   -912   -916   -801   57.069   106.503
Angle   -901   -912   -901   37.134   108.836
Torsion   -912   -916   -912   -912   -0.341   0   1
Torsion   -912   -916   -912   -912   0.378   180   2
Torsion   -912   -916   -912   -912   0.378   0   3
Torsion   -912   -916   -912   -901   0.285   0   1
Torsion   -912   -916   -912   -901   0.16   180   2
Torsion   -912   -916   -912   -901   0.285   0   3
Torsion   -912   -912   -912   -912   0.051   0   1
Torsion   -912   -912   -912   -912   0.341   180   2
Torsion   -912   -912   -912   -912   0.166   0   3
Torsion   -912   -912   -912   -916   -0.344   0   1
Torsion   -912   -912   -912   -916   0.878   180   2
Torsion   -912   -912   -912   -916   0.238   0   3
Torsion   -912   -912   -912   -901   0.32   0   1
Torsion   -912   -912   -912   -901   -0.315   180   2
Torsion   -912   -912   -912   -901   0.132   0   3
Torsion   -912   -912   -916   -801   0.135   180   2
Torsion   -912   -912   -916   -801   0.118   0   3
Torsion   -916   -912   -912   -916   0.204   0   1
Torsion   -916   -912   -912   -916   0.699   180   2
Torsion   -916   -912   -912   -916   0.48   0   3
Torsion   -916   -912   -912   -901   -0.327   0   1
Torsion   -916   -912   -912   -901   0.536   180   2
Torsion   -916   -912   -912   -901   0.14   0   3
Torsion   -916   -912   -916   -801   0.744   0   1
Torsion   -916   -912   -916   -801   -1.7   180   2
Torsion   -916   -912   -916   -801   -0.16   0   3
Torsion   -912   -916   -912   -916   0.115   0   1
Torsion   -912   -916   -912   -916   -0.355   180   2
Torsion   -912   -916   -912   -916   0.361   0   3
Torsion   -901   -912   -912   -901   0.142   0   1
Torsion   -901   -912   -912   -901   -0.693   180   2
Torsion   -901   -912   -912   -901   0.157   0   3
Torsion   -901   -912   -916   -801   0.298   0   1
Torsion   -901   -912   -916   -801   -0.138   180   2
Torsion   -901   -912   -916   -801   0.173   0   3
Imptor	-912   -912   -916   -916       0.000  0     0.00
Imptor	-912   -916   -916   -901     0.000  0     0.00
Imptor	-912   -912   -916   -912       0.000  0     0.00
Imptor	-912   -912   -916   -901     0.000  0     0.00
Imptor	-912   -912   -912   -916       0.000  0     0.00
Imptor	-912   -912   -912   -901     0.000  0     0.00
Imptor	-912   -916   -912   -901     0.000  0     0.00
$end

$molecule
0 1
H	 -0.108581	  0.084888	 -2.183561	  0	 5	 0	 0	 0
Al	 -1.535626	  0.782070	 -3.957808	  0	 3	 4	 5	 6
O	 -2.405133	 -0.448558	 -4.772149	  0	 2	 8	 0	 0
O	 -2.200855	  1.345193	 -2.494012	  0	 9	 2	 0	 0
O	 -0.091293	 -0.078118	 -3.145893	  0	 1	 2	 7	 0
O	 -0.837208	  1.986190	 -4.953207	  0	 2	 10	 0	 0
Si	  0.932459	 -1.313336	 -3.669071	  0	 11	 12	 5	 13
Si	 -2.709871	 -0.913747	 -6.287289	  0	 3	 14	 55	 15
Si	 -3.290933	  2.268884	 -1.785439	  0	 17	 4	 39	 16
Si	 -1.348597	  3.329021	 -5.685361	  0	 18	 19	 6	 56
O	  0.786194	 -2.406013	 -2.489569	  0	 20	 7	 0	 0
O	  0.450955	 -1.838869	 -5.111693	  0	 21	 7	 0	 0
O	  2.416016	 -0.674824	 -3.707258	  0	 22	 7	 0	 0
O	 -1.744557	 -2.195646	 -6.664622	  0	 21	 8	 0	 0
O	 -2.394617	  0.290027	 -7.356731	  0	 23	 8	 0	 0
O	 -3.240356	  3.832695	 -2.266634	  0	 9	 24	 0	 0
O	 -2.948129	  2.248622	 -0.195622	  0	 9	 25	 0	 0
O	 -1.900324	  2.976553	 -7.188829	  0	 10	 23	 0	 0
O	 -2.597785	  4.020573	 -4.853991	  0	 10	 24	 0	 0
Si	  0.895778	 -3.912117	 -1.850276	  0	 33	 11	 27	 63
Si	 -0.422464	 -2.907775	 -6.057181	  0	 65	 66	 12	 14
Si	  3.983665	 -1.052747	 -3.372263	  0	 34	 13	 70	 69
Si	 -2.653574	  1.774227	 -8.004512	  0	 57	 18	 67	 15
Si	 -3.258161	  4.805588	 -3.582420	  0	 42	 19	 68	 16
Si	 -3.567635	  2.207605	  1.285656	  0	 17	 43	 44	 32
Si	  0.559861	 -3.889644	  1.219911	  0	 60	 27	 28	 30
O	  0.211552	 -3.899986	 -0.376072	  0	 26	 20	 0	 0
O	  2.088271	 -3.350748	  1.455989	  0	 26	 38	 0	 0
O	  4.364142	 -3.620453	  0.035961	  0	 35	 38	 0	 0
O	 -0.482846	 -2.877222	  1.932296	  0	 26	 37	 0	 0
O	 -2.663699	 -1.695604	  2.801716	  0	 36	 37	 0	 0
O	 -3.298834	  0.719379	  1.905149	  0	 25	 36	 0	 0
O	  2.484590	 -4.293944	 -1.751109	  0	 35	 20	 0	 0
O	  4.039494	 -2.133298	 -2.142990	  0	 35	 22	 0	 0
Si	  3.987554	 -3.660101	 -1.546146	  0	 33	 34	 29	 64
Si	 -3.612737	 -0.391568	  3.056311	  0	 41	 61	 31	 32
Si	 -1.305577	 -2.451722	  3.269507	  0	 62	 30	 31	 40
Si	  3.695346	 -3.686485	  1.531241	  0	 58	 59	 28	 29
O	 -4.800201	  1.674042	 -2.053413	  0	 9	 45	 0	 0
O	 -0.354286	 -1.462065	  4.161927	  0	 50	 37	 0	 0
O	 -3.283247	  0.252685	  4.530146	  0	 52	 36	 0	 0
O	 -4.810338	  5.193398	 -3.929707	  0	 24	 48	 0	 0
O	 -5.169720	  2.520593	  1.289654	  0	 25	 49	 0	 0
O	 -2.803665	  3.338456	  2.158570	  0	 25	 54	 0	 0
Si	 -6.396978	  2.028665	 -2.120461	  0	 47	 71	 46	 39
O	 -6.599872	  3.529372	 -2.736115	  0	 45	 48	 0	 0
O	 -7.032669	  1.984779	 -0.617977	  0	 49	 45	 0	 0
Si	 -6.346364	  4.624993	 -3.929961	  0	 42	 77	 46	 72
Si	 -6.690485	  1.977404	  0.978885	  0	 73	 43	 78	 47
Si	 -0.031489	 -0.816078	  5.639755	  0	 74	 51	 75	 40
O	 -0.997581	  0.468183	  5.929668	  0	 50	 52	 0	 0
Si	 -2.338876	  1.247960	  5.430078	  0	 41	 51	 76	 53
O	 -1.882502	  2.550184	  4.555288	  0	 52	 54	 0	 0
Si	 -2.329219	  3.831282	  3.635410	  0	 44	 53	 79	 80
O	 -4.183319	 -1.454795	 -6.419168	 -1	 81	 8	 0	 0
O	 -0.147975	  4.344639	 -5.803798	 -1	 97	 10	 0	 0
O	 -4.222957	  2.066373	 -7.978831	 -1	 23	 96	 0	 0
O	  4.417281	 -2.592167	  2.416949	 -1	 146	 38	 0	 0
O	  3.896051	 -5.153791	  2.127143	 -1	 290	 38	 0	 0
O	  0.395098	 -5.371717	  1.784820	 -1	 26	 287	 0	 0
O	 -5.110505	 -0.884104	  2.978800	 -1	 36	 191	 0	 0
O	 -1.705846	 -3.750769	  4.103768	 -1	 37	 264	 0	 0
O	  0.103012	 -4.905034	 -2.771418	 -1	 370	 20	 0	 0
O	  5.002976	 -4.600067	 -2.293392	 -1	 235	 35	 0	 0
O	  0.448432	 -3.330364	 -7.310176	 -1	 21	 239	 0	 0
O	 -0.775160	 -4.182769	 -5.143513	 -1	 370	 21	 0	 0
O	 -2.084715	  1.799031	 -9.484180	 -1	 277	 23	 0	 0
O	 -2.488471	  6.147184	 -3.223464	 -1	 299	 24	 0	 0
O	  4.734923	  0.288634	 -2.972799	 -1	 22	 376	 0	 0
O	  4.596640	 -1.693890	 -4.692854	 -1	 380	 22	 0	 0
O	 -7.152309	  0.931358	 -2.983242	 -1	 82	 45	 0	 0
O	 -6.620043	  3.915965	 -5.333626	 -1	 84	 48	 0	 0
O	 -6.828295	  0.486833	  1.534155	 -1	 49	 191	 0	 0
O	  1.475145	 -0.323061	  5.662223	 -1	 50	 202	 0	 0
O	 -0.306624	 -1.912154	  6.764478	 -1	 50	 267	 0	 0
O	 -3.151104	  1.690483	  6.703224	 -1	 218	 52	 0	 0
O	 -7.332173	  5.847120	 -3.697063	 -1	 221	 48	 0	 0
O	 -7.706434	  2.959928	  1.685879	 -1	 49	 225	 0	 0
O	 -3.557440	  4.596660	  4.303762	 -1	 364	 54	 0	 0
O	 -1.078662	  4.776639	  3.443483	 -1	 366	 54	 0	 0
Si	 -5.740490	 -1.021942	 -6.537411	 -23	 89	 85	 55	 88
Si	 -7.573965	  0.418658	 -4.455415	 -23	 87	 85	 86	 71
Si	 -9.620010	 -1.921053	 -4.675106	 -2	 90	 91	 92	 86
Si	 -7.567311	  2.984218	 -6.240983	 -23	 93	 94	 87	 72
O	 -6.330729	 -0.373717	 -5.148746	 -1	 81	 82	 0	 0
O	 -8.861016	 -0.540039	 -4.272426	 -1	 82	 83	 0	 0
O	 -8.031543	  1.662616	 -5.393585	 -1	 82	 84	 0	 0
O	 -6.508910	 -2.359799	 -6.880739	 -1	 81	 95	 0	 0
O	 -5.897721	  0.053998	 -7.712587	 -1	 81	 96	 0	 0
O	 -9.459200	 -2.971281	 -3.468624	 -1	 98	 83	 0	 0
O	 -11.177888	 -1.601436	 -4.913291	 -1	 99	 83	 0	 0
O	 -8.987080	 -2.540265	 -6.021088	 -1	 83	 95	 0	 0
O	 -6.774961	  2.528186	 -7.560841	 -1	 84	 96	 0	 0
O	 -8.887994	  3.798328	 -6.658432	 -1	 100	 84	 0	 0
Si	 -7.774679	 -3.342133	 -6.711403	 -2	 92	 101	 102	 88
Si	 -5.717634	  1.550409	 -8.277544	 -23	 89	 57	 93	 103
Si	  0.621798	  5.707254	 -5.427392	 -23	 345	 346	 300	 56
Si	 -9.638680	 -4.468179	 -2.904295	 -2	 90	 324	 252	 325
Si	 -12.701433	 -2.112239	 -4.978009	 -2	 91	 360	 327	 355
Si	 -9.878274	  5.053019	 -6.454494	 -2	 353	 354	 94	 224
O	 -8.235753	 -3.870542	 -8.158566	 -1	 95	 104	 0	 0
O	 -7.358367	 -4.593064	 -5.787033	 -1	 105	 95	 0	 0
O	 -5.980585	  1.556124	 -9.867370	 -1	 106	 96	 0	 0
Si	 -9.007148	 -4.961888	 -9.054033	 -2	 387	 101	 382	 383
Si	 -7.788287	 -5.896052	 -4.946356	 -2	 187	 324	 102	 399
Si	 -5.419086	  1.612606	 -11.374458	 -2	 188	 189	 190	 103
O	 -8.955323	 -8.331568	  1.762595	 -1	 110	 303	 0	 0
O	 -6.843077	 -9.601968	  0.859625	 -1	 137	 110	 0	 0
O	 -8.066780	 -10.455208	  3.026828	 -1	 110	 111	 0	 0
Si	 -7.636749	 -9.151385	  2.185612	 -2	 107	 108	 109	 119
Si	 -7.650536	 -11.706047	  3.949469	 -2	 117	 109	 118	 112
O	 -8.916126	 -12.687637	  4.119995	 -1	 113	 111	 0	 0
Si	 -9.686012	 -14.051088	  3.744127	 -2	 114	 115	 116	 112
O	 -9.526820	 -15.102756	  4.951753	 -1	 113	 1575	 0	 0
O	 -11.246004	 -13.731589	  3.507175	 -1	 865	 113	 0	 0
O	 -9.055308	 -14.671253	  2.399917	 -1	 113	 142	 0	 0
O	 -7.188608	 -11.177472	  5.398922	 -1	 282	 111	 0	 0
O	 -6.437348	 -12.507658	  3.259715	 -1	 140	 111	 0	 0
O	 -6.687663	 -8.215510	  3.086751	 -1	 110	 280	 0	 0
Si	 -5.487201	 -10.517548	 -2.953992	 -2	 121	 122	 123	 124
O	 -6.048812	 -10.574864	 -1.446365	 -1	 137	 120	 0	 0
O	 -5.736760	 -9.047757	 -3.560282	 -1	 180	 120	 0	 0
O	 -3.910570	 -10.842206	 -2.951715	 -1	 333	 120	 0	 0
O	 -6.257922	 -11.609472	 -3.848359	 -1	 125	 120	 0	 0
Si	 -6.719063	 -12.137790	 -5.297251	 -2	 124	 132	 126	 127
O	 -7.135487	 -10.887694	 -6.221081	 -1	 125	 182	 0	 0
O	 -5.506662	 -12.939658	 -5.987566	 -1	 125	 128	 0	 0
Si	 -4.875957	 -13.559824	 -7.331776	 -2	 129	 130	 131	 127
O	 -5.645056	 -14.923017	 -7.707082	 -1	 771	 128	 0	 0
O	 -3.317359	 -13.879092	 -7.094757	 -1	 343	 128	 0	 0
O	 -5.033756	 -12.508384	 -8.539468	 -1	 185	 128	 0	 0
O	 -7.985440	 -13.119637	 -5.127286	 -1	 133	 125	 0	 0
Si	 -8.755325	 -14.483087	 -5.503154	 -2	 132	 134	 135	 136
O	 -8.123835	 -15.102996	 -6.846802	 -1	 771	 133	 0	 0
O	 -10.315317	 -14.163589	 -5.740106	 -1	 133	 1902	 0	 0
O	 -8.596133	 -15.534756	 -4.295528	 -1	 1649	 133	 0	 0
Si	 -5.785749	 -10.579744	  0.142922	 -2	 121	 138	 139	 108
O	 -4.290577	 -10.065102	  0.441546	 -1	 137	 392	 0	 0
O	 -5.965836	 -12.076155	  0.707879	 -1	 137	 140	 0	 0
Si	 -5.806644	 -13.127824	  1.915505	 -2	 145	 139	 141	 118
O	 -6.576529	 -14.491274	  1.539638	 -1	 140	 142	 0	 0
Si	 -7.842120	 -15.472864	  1.710164	 -2	 116	 141	 143	 144
O	 -8.303082	 -16.000438	  0.262462	 -1	 142	 1446	 0	 0
O	 -7.425875	 -16.723704	  2.632805	 -1	 142	 807	 0	 0
O	 -4.248046	 -13.447092	  2.152524	 -1	 394	 140	 0	 0
Si	  4.878243	 -2.064593	  3.864651	 -23	 58	 147	 148	 149
O	  3.665953	 -1.261890	  4.554427	 -1	 202	 146	 0	 0
O	  5.295274	 -3.315175	  4.787853	 -1	 146	 292	 0	 0
O	  6.143833	 -1.083003	  3.694125	 -1	 146	 958	 0	 0
Si	 -2.394391	 -7.778649	 -4.426213	 -2	 153	 154	 151	 152
O	 -1.624506	 -6.415199	 -4.050346	 -1	 370	 150	 0	 0
O	 -3.954495	 -7.459986	 -4.662626	 -1	 180	 150	 0	 0
O	 -2.235806	 -8.829831	 -3.217959	 -1	 333	 150	 0	 0
O	 -1.763687	 -8.398815	 -5.770423	 -1	 155	 150	 0	 0
Si	 -0.550499	 -9.200426	 -6.460177	 -2	 161	 154	 156	 162
O	 -1.011573	 -9.728835	 -7.907340	 -1	 155	 157	 0	 0
Si	 -1.783147	 -10.820925	 -8.803997	 -2	 156	 158	 159	 160
O	 -3.359891	 -10.497101	 -8.805735	 -1	 185	 157	 0	 0
O	 -1.221649	 -10.764443	 -10.311084	 -1	 1322	 157	 0	 0
O	 -1.534196	 -12.290229	 -8.197078	 -1	 157	 343	 0	 0
O	  0.714979	 -8.219671	 -6.630163	 -1	 155	 372	 0	 0
O	 -0.134974	 -10.451613	 -5.536368	 -1	 155	 336	 0	 0
Si	 -8.718973	 -5.464052	  4.300925	 -2	 179	 164	 165	 166
O	 -9.667452	 -6.400413	  3.399157	 -1	 163	 303	 0	 0
O	 -7.399792	 -6.284355	  4.723313	 -1	 163	 280	 0	 0
O	 -9.511431	 -5.014442	  5.625655	 -1	 163	 167	 0	 0
Si	 -10.569366	 -4.036179	  6.342986	 -2	 174	 173	 166	 168
O	 -12.064650	 -4.551657	  6.044901	 -1	 169	 167	 0	 0
Si	 -13.641281	 -4.226998	  6.042624	 -2	 170	 171	 172	 168
O	 -14.412788	 -5.319180	  5.147696	 -1	 169	 312	 0	 0
O	 -13.890840	 -2.757207	  5.436334	 -1	 169	 351	 0	 0
O	 -14.202892	 -4.284315	  7.550251	 -1	 169	 1397	 0	 0
O	 -10.390673	 -2.539539	  5.778096	 -1	 349	 167	 0	 0
O	 -10.307809	 -4.041665	  7.932879	 -1	 175	 167	 0	 0
Si	 -10.869307	 -4.098146	  9.439967	 -2	 177	 178	 174	 176
O	 -10.618963	 -5.567680	  10.046819	 -1	 175	 1208	 0	 0
O	 -12.445264	 -3.774066	  9.438791	 -1	 1397	 175	 0	 0
O	 -10.097014	 -3.005708	  10.335457	 -1	 561	 175	 0	 0
O	 -8.289054	 -4.161064	  3.460248	 -1	 163	 347	 0	 0
Si	 -5.478040	 -7.970788	 -4.727344	 -2	 122	 187	 181	 152
O	 -5.756976	 -8.647510	 -6.160530	 -1	 180	 182	 0	 0
Si	 -6.706063	 -9.583384	 -7.061669	 -2	 181	 126	 183	 184
O	 -8.026030	 -8.763339	 -7.484619	 -1	 182	 400	 0	 0
O	 -5.912390	 -10.033967	 -8.387656	 -1	 185	 182	 0	 0
Si	 -4.855063	 -11.011744	 -9.104359	 -2	 186	 131	 158	 184
O	 -5.118125	 -11.006864	 -10.693646	 -1	 185	 967	 0	 0
O	 -6.468319	 -6.716098	 -4.523406	 -1	 105	 180	 0	 0
O	 -6.189695	  0.521516	 -12.269364	 -1	 106	 698	 0	 0
O	 -5.668644	  3.082397	 -11.980748	 -1	 106	 1052	 0	 0
O	 -3.842343	  1.288782	 -11.372720	 -1	 106	 277	 0	 0
Si	 -6.669215	 -0.565671	  2.742320	 -22	 73	 201	 61	 192
O	 -7.301313	  0.054725	  4.086597	 -1	 193	 191	 0	 0
Si	 -8.513603	  0.857428	  4.776373	 -2	 194	 195	 196	 192
O	 -9.778586	 -0.124649	  4.946271	 -1	 193	 349	 0	 0
O	 -8.930026	  2.107523	  3.852542	 -1	 193	 225	 0	 0
O	 -8.051854	  1.385259	  6.224636	 -1	 193	 197	 0	 0
Si	 -7.280459	  2.476605	  7.120104	 -2	 196	 198	 199	 200
O	 -5.705109	  2.153011	  7.121909	 -1	 218	 197	 0	 0
O	 -7.530804	  3.946139	  6.513252	 -1	 197	 232	 0	 0
O	 -7.841958	  2.420124	  8.627192	 -1	 197	 1317	 0	 0
O	 -7.440494	 -1.928891	  2.366519	 -1	 347	 191	 0	 0
Si	  3.035249	 -0.641724	  5.898637	 -23	 74	 147	 204	 203
O	  3.193655	 -1.693650	  7.105701	 -1	 202	 274	 0	 0
O	  3.805135	  0.721726	  6.274504	 -1	 202	 1791	 0	 0
Si	 -3.325685	 -7.346163	  4.821696	 -2	 217	 206	 207	 216
O	 -4.885070	 -7.027151	  4.584116	 -1	 205	 280	 0	 0
O	 -3.166493	 -8.397831	  6.029322	 -1	 205	 208	 0	 0
Si	 -3.345972	 -9.894729	  6.593651	 -2	 209	 215	 214	 207
O	 -3.083517	 -9.899122	  8.183567	 -1	 210	 208	 0	 0
Si	 -3.645127	 -9.956439	  9.691193	 -2	 209	 211	 212	 213
O	 -2.873620	 -8.864257	  10.586122	 -1	 210	 1606	 0	 0
O	 -3.395569	 -11.426230	  10.297484	 -1	 210	 1414	 0	 0
O	 -5.221871	 -9.632615	  9.689455	 -1	 210	 284	 0	 0
O	 -4.841144	 -10.409371	  6.295027	 -1	 282	 208	 0	 0
O	 -2.288038	 -10.872992	  5.876320	 -1	 316	 208	 0	 0
O	 -2.555192	 -5.983199	  5.196935	 -1	 205	 264	 0	 0
O	 -2.694373	 -7.966815	  3.476858	 -1	 314	 205	 0	 0
Si	 -4.209826	  2.668489	  7.419994	 -23	 219	 76	 198	 220
O	 -4.029851	  4.164065	  6.855575	 -1	 218	 364	 0	 0
O	 -3.946875	  2.662774	  9.009820	 -1	 218	 454	 0	 0
Si	 -8.650746	  6.666936	 -4.120080	 -23	 77	 222	 223	 224
O	 -9.443923	  7.116198	 -2.794183	 -1	 1313	 221	 0	 0
O	 -8.220827	  7.969924	 -4.960757	 -1	 221	 757	 0	 0
O	 -9.599337	  5.729740	 -5.021309	 -1	 100	 221	 0	 0
Si	 -8.500107	  3.410511	  3.011865	 -23	 226	 195	 78	 231
O	 -9.819288	  4.230814	  2.589477	 -1	 225	 227	 0	 0
Si	 -10.809567	  5.485505	  2.793415	 -2	 226	 228	 229	 230
O	 -10.530631	  6.162227	  4.226600	 -1	 1122	 227	 0	 0
O	 -12.334685	  4.974188	  2.727574	 -1	 227	 1806	 0	 0
O	 -10.550736	  6.563308	  1.625814	 -1	 227	 684	 0	 0
O	 -7.551516	  4.347707	  3.913094	 -1	 225	 232	 0	 0
Si	 -7.272579	  5.024429	  5.346280	 -2	 233	 234	 199	 231
O	 -8.262859	  6.279120	  5.550217	 -1	 1122	 232	 0	 0
O	 -5.749035	  5.535232	  5.410997	 -1	 364	 232	 0	 0
Si	  5.796041	 -5.050163	 -3.618750	 -23	 236	 237	 238	 64
O	  4.847450	 -5.987359	 -4.519979	 -1	 235	 374	 0	 0
O	  6.225960	 -3.747175	 -4.459428	 -1	 235	 380	 0	 0
O	  7.115896	 -5.871044	 -3.195262	 -1	 235	 579	 0	 0
Si	  1.505760	 -4.308141	 -8.026879	 -23	 65	 250	 245	 240
O	  1.242809	 -4.302426	 -9.616706	 -1	 241	 239	 0	 0
Si	  1.804307	 -4.245944	 -11.123793	 -2	 242	 243	 244	 240
O	  1.554749	 -2.776153	 -11.730084	 -1	 241	 854	 0	 0
O	  1.033699	 -5.337034	 -12.018699	 -1	 241	 1951	 0	 0
O	  3.381051	 -4.569768	 -11.122055	 -1	 241	 520	 0	 0
O	  3.000436	 -3.792176	 -7.728166	 -1	 246	 239	 0	 0
Si	  4.577180	 -4.116000	 -7.726428	 -2	 249	 245	 247	 248
O	  4.826738	 -5.585791	 -7.120138	 -1	 374	 246	 0	 0
O	  5.347967	 -3.024167	 -6.830332	 -1	 380	 246	 0	 0
O	  5.138678	 -4.059518	 -9.233516	 -1	 246	 520	 0	 0
O	  1.325785	 -5.803716	 -7.462461	 -1	 372	 239	 0	 0
Si	 -9.937834	 -4.529889	  0.193248	 -2	 252	 253	 262	 263
O	 -9.376336	 -4.473407	 -1.313840	 -1	 98	 251	 0	 0
O	 -11.513971	 -4.206552	  0.190882	 -1	 251	 254	 0	 0
Si	 -13.009142	 -4.721195	 -0.107743	 -2	 261	 253	 255	 256
O	 -13.272205	 -4.716314	 -1.697030	 -1	 326	 254	 0	 0
O	 -14.066470	 -3.743418	  0.608961	 -1	 257	 254	 0	 0
Si	 -14.860143	 -3.292835	  1.934947	 -2	 258	 259	 260	 256
O	 -16.180110	 -2.472789	  1.511997	 -1	 257	 976	 0	 0
O	 -13.911056	 -2.356961	  2.836086	 -1	 257	 351	 0	 0
O	 -15.290174	 -4.596658	  2.776163	 -1	 257	 312	 0	 0
O	 -13.189229	 -6.217605	  0.457215	 -1	 305	 254	 0	 0
O	 -9.166439	 -3.438542	  1.088715	 -1	 251	 347	 0	 0
O	 -9.688276	 -5.999680	  0.799538	 -1	 251	 303	 0	 0
Si	 -1.290209	 -5.001122	  5.027038	 -23	 265	 266	 62	 216
O	 -0.077920	 -5.803825	  4.337262	 -1	 287	 264	 0	 0
O	 -0.828461	 -4.473291	  6.475301	 -1	 267	 264	 0	 0
Si	 -0.057065	 -3.381945	  7.370769	 -23	 273	 266	 75	 268
O	 -0.618564	 -3.438426	  8.877856	 -1	 267	 269	 0	 0
Si	 -0.356109	 -3.442820	  10.467772	 -2	 268	 270	 271	 272
O	  1.139063	 -2.928177	  10.766396	 -1	 1745	 269	 0	 0
O	 -1.413616	 -2.465787	  11.183286	 -1	 564	 269	 0	 0
O	 -0.535588	 -4.939717	  11.032101	 -1	 649	 269	 0	 0
O	  1.519678	 -3.705768	  7.372507	 -1	 274	 267	 0	 0
Si	  3.014354	 -3.189804	  7.671220	 -2	 273	 203	 275	 276
O	  4.072289	 -4.168067	  6.953889	 -1	 274	 292	 0	 0
O	  3.276519	 -3.195776	  9.260485	 -1	 1745	 274	 0	 0
Si	 -2.347171	  1.803425	 -11.074096	 -23	 67	 278	 190	 279
O	 -1.289236	  0.825162	 -11.791427	 -1	 610	 277	 0	 0
O	 -2.168478	  3.300065	 -11.638986	 -1	 1628	 277	 0	 0
Si	 -6.408726	 -7.538789	  4.519937	 -2	 281	 165	 206	 119
O	 -6.667446	 -8.615757	  5.686999	 -1	 282	 280	 0	 0
Si	 -6.417888	 -10.085548	  6.293289	 -2	 281	 283	 117	 214
O	 -6.979498	 -10.142864	  7.800916	 -1	 282	 284	 0	 0
Si	 -6.716435	 -10.147745	  9.390203	 -2	 283	 213	 285	 286
O	 -7.773763	 -9.169968	  10.106906	 -1	 1970	 284	 0	 0
O	 -6.896522	 -11.644155	  9.955160	 -1	 970	 284	 0	 0
Si	  0.554178	 -6.424220	  2.992985	 -23	 265	 289	 60	 288
O	 -0.216202	 -7.786349	  2.617207	 -1	 314	 287	 0	 0
O	  2.112888	 -6.742654	  3.229465	 -1	 290	 287	 0	 0
Si	  3.637827	 -6.232081	  3.294116	 -23	 289	 59	 291	 294
O	  3.916764	 -5.555359	  4.727302	 -1	 290	 292	 0	 0
Si	  4.865355	 -4.618163	  5.628531	 -2	 275	 291	 148	 293
O	  6.183928	 -5.437980	  6.051547	 -1	 1562	 292	 0	 0
O	  4.628893	 -7.486515	  3.090740	 -1	 290	 295	 0	 0
Si	  5.947467	 -8.306331	  3.513756	 -2	 297	 298	 294	 296
O	  6.741251	 -8.756079	  2.187231	 -1	 1210	 295	 0	 0
O	  5.517547	 -9.609319	  4.354433	 -1	 1423	 295	 0	 0
O	  6.896058	 -7.369135	  4.414985	 -1	 1562	 295	 0	 0
Si	 -1.222094	  7.129031	 -3.393428	 -23	 300	 68	 301	 302
O	 -0.009693	  6.327163	 -4.083743	 -1	 97	 299	 0	 0
O	 -0.760841	  7.658184	 -1.945076	 -1	 299	 1799	 0	 0
O	 -1.638406	  8.379962	 -4.317798	 -1	 299	 835	 0	 0
Si	 -9.946501	 -7.077970	  1.966510	 -2	 107	 164	 263	 304
O	 -11.471439	 -7.588543	  1.901859	 -1	 305	 303	 0	 0
Si	 -13.030037	 -7.269274	  1.664841	 -2	 306	 261	 311	 304
O	 -13.799923	 -8.632724	  1.288973	 -1	 305	 307	 0	 0
Si	 -15.066300	 -9.614572	  1.458937	 -2	 306	 308	 309	 310
O	 -16.278701	 -8.812704	  2.149252	 -1	 931	 307	 0	 0
O	 -15.527262	 -10.142146	  0.011235	 -1	 307	 720	 0	 0
O	 -14.649269	 -10.865154	  2.382140	 -1	 307	 1811	 0	 0
O	 -13.661528	 -6.649365	  3.008489	 -1	 305	 312	 0	 0
Si	 -14.873929	 -5.847497	  3.698804	 -2	 313	 170	 260	 311
O	 -16.139520	 -6.829088	  3.869330	 -1	 931	 312	 0	 0
Si	 -1.481972	 -8.768683	  2.786543	 -2	 217	 315	 323	 288
O	 -1.065549	 -10.018779	  3.710374	 -1	 314	 316	 0	 0
Si	 -1.495580	 -11.322602	  4.551590	 -2	 322	 315	 317	 215
O	 -0.176399	 -12.142905	  4.973978	 -1	 316	 318	 0	 0
Si	  0.814667	 -13.397338	  4.770602	 -2	 321	 317	 319	 320
O	  0.535731	 -14.074060	  3.337416	 -1	 396	 318	 0	 0
O	  0.555947	 -14.474307	  5.937663	 -1	 1458	 318	 0	 0
O	  2.338324	 -12.885701	  4.834780	 -1	 318	 1880	 0	 0
O	 -2.444059	 -12.258963	  3.649822	 -1	 394	 316	 0	 0
O	 -1.942934	 -9.296257	  1.338841	 -1	 314	 392	 0	 0
O	 -8.580745	 -5.446442	 -3.621626	 -1	 105	 98	 0	 0
O	 -11.133963	 -4.983656	 -3.202380	 -1	 98	 326	 0	 0
Si	 -12.710595	 -4.658998	 -3.204657	 -2	 327	 325	 255	 328
O	 -12.960153	 -3.189207	 -3.810947	 -1	 99	 326	 0	 0
O	 -13.481315	 -5.750923	 -4.099024	 -1	 329	 326	 0	 0
Si	 -13.943243	 -6.279497	 -5.548477	 -2	 330	 331	 332	 328
O	 -12.730055	 -7.081108	 -6.238230	 -1	 329	 402	 0	 0
O	 -15.208833	 -7.261087	 -5.377951	 -1	 329	 1147	 0	 0
O	 -14.358880	 -5.029144	 -6.471746	 -1	 329	 361	 0	 0
Si	 -2.415286	 -10.326728	 -2.653630	 -2	 153	 123	 334	 335
O	 -2.152335	 -10.332444	 -1.063803	 -1	 333	 392	 0	 0
O	 -1.357351	 -11.304992	 -3.370961	 -1	 333	 336	 0	 0
Si	 -0.564893	 -11.754602	 -4.695691	 -2	 337	 162	 342	 335
O	  0.754287	 -12.574904	 -4.273303	 -1	 338	 336	 0	 0
Si	  1.745354	 -13.829338	 -4.476679	 -2	 337	 339	 340	 341
O	  1.466417	 -14.506060	 -5.909865	 -1	 338	 1221	 0	 0
O	  1.487241	 -14.906793	 -3.310246	 -1	 338	 1566	 0	 0
O	  3.269010	 -13.317701	 -4.412500	 -1	 338	 1548	 0	 0
O	 -1.513372	 -12.690962	 -5.597459	 -1	 343	 336	 0	 0
Si	 -1.792421	 -13.368519	 -7.030106	 -2	 160	 130	 342	 344
O	 -0.801243	 -14.622118	 -7.234021	 -1	 1221	 343	 0	 0
O	  2.180396	  5.387986	 -5.190373	 -1	 97	 1138	 0	 0
O	  0.463213	  6.758437	 -6.635646	 -1	 97	 1642	 0	 0
Si	 -8.705366	 -2.910133	  2.535878	 -2	 201	 179	 348	 262
O	 -9.917767	 -2.108265	  3.226193	 -1	 347	 349	 0	 0
Si	 -10.549078	 -1.487613	  4.571031	 -2	 194	 348	 173	 350
O	 -12.108575	 -1.169436	  4.333990	 -1	 349	 351	 0	 0
Si	 -13.632727	 -1.679752	  4.269900	 -2	 171	 259	 350	 352
O	 -14.623186	 -0.425805	  4.472649	 -1	 468	 351	 0	 0
O	 -9.620161	  6.130473	 -7.620928	 -1	 100	 1236	 0	 0
O	 -11.403212	  4.542446	 -6.519145	 -1	 1050	 100	 0	 0
O	 -13.692499	 -0.857805	 -4.774632	 -1	 99	 356	 0	 0
Si	 -15.011680	 -0.037502	 -5.197021	 -2	 355	 357	 358	 359
O	 -15.960271	 -0.974698	 -6.098249	 -1	 985	 356	 0	 0
O	 -15.804138	  0.412108	 -3.872290	 -1	 356	 998	 0	 0
O	 -14.581761	  1.265486	 -6.037698	 -1	 1865	 356	 0	 0
O	 -12.980370	 -2.788960	 -6.411195	 -1	 361	 99	 0	 0
Si	 -13.929568	 -3.725670	 -7.311795	 -2	 362	 363	 332	 360
O	 -15.248141	 -2.905853	 -7.734812	 -1	 361	 985	 0	 0
O	 -13.135784	 -4.175418	 -8.638320	 -1	 361	 384	 0	 0
Si	 -4.188931	  5.216568	  5.647411	 -23	 234	 219	 365	 79
O	 -3.419157	  6.579184	  6.023817	 -1	 364	 566	 0	 0
Si	 -0.308888	  6.139254	  3.819889	 -23	 369	 368	 367	 80
O	  1.248923	  5.819729	  4.056346	 -1	 366	 1640	 0	 0
O	 -0.940379	  6.759163	  5.163538	 -1	 366	 566	 0	 0
O	 -0.468080	  7.190923	  2.612263	 -1	 444	 366	 0	 0
Si	 -0.358916	 -5.433608	 -4.220871	 -22	 66	 371	 151	 63
O	  0.854161	 -6.236054	 -4.910086	 -1	 370	 372	 0	 0
Si	  1.484865	 -6.856220	 -6.254296	 -2	 161	 250	 371	 373
O	  3.043575	 -7.174654	 -6.017816	 -1	 372	 374	 0	 0
Si	  4.568513	 -6.664081	 -5.953165	 -2	 236	 373	 375	 247
O	  5.558298	 -7.917450	 -6.157014	 -1	 1625	 374	 0	 0
Si	  6.001300	  1.270482	 -3.142764	 -23	 377	 378	 379	 69
O	  5.585774	  2.521669	 -4.066572	 -1	 585	 376	 0	 0
O	  6.462553	  1.799634	 -1.694411	 -1	 530	 376	 0	 0
O	  7.213701	  0.468614	 -3.833078	 -1	 953	 376	 0	 0
Si	  5.808929	 -2.496593	 -5.382630	 -23	 381	 237	 70	 248
O	  7.075418	 -1.513911	 -5.553133	 -1	 953	 380	 0	 0
O	 -8.757590	 -6.431680	 -8.447743	 -1	 400	 104	 0	 0
O	 -10.583284	 -4.638552	 -9.056399	 -1	 384	 104	 0	 0
Si	 -12.078456	 -5.153194	 -9.355023	 -2	 385	 386	 363	 383
O	 -12.341519	 -5.148314	 -10.944311	 -1	 1188	 384	 0	 0
O	 -12.257936	 -6.650092	 -8.790694	 -1	 402	 384	 0	 0
O	 -8.445042	 -4.905894	 -10.561749	 -1	 388	 104	 0	 0
Si	 -8.707993	 -4.900178	 -12.151576	 -2	 387	 389	 390	 391
O	 -7.650058	 -5.878442	 -12.868907	 -1	 1379	 388	 0	 0
O	 -8.528513	 -3.403281	 -12.715905	 -1	 388	 736	 0	 0
O	 -10.203277	 -5.415656	 -12.449661	 -1	 1188	 388	 0	 0
Si	 -2.714441	 -10.388438	  0.443912	 -2	 393	 138	 323	 334
O	 -2.464883	 -11.858229	  1.050203	 -1	 394	 392	 0	 0
Si	 -2.723107	 -12.936519	  2.217175	 -2	 145	 322	 395	 393
O	 -1.731929	 -14.190118	  2.013260	 -1	 394	 396	 0	 0
Si	 -0.413356	 -15.009934	  2.436276	 -2	 395	 397	 398	 319
O	 -0.842779	 -16.314244	  3.276864	 -1	 538	 396	 0	 0
O	  0.380317	 -15.460517	  1.110290	 -1	 459	 396	 0	 0
O	 -8.736878	 -6.833248	 -5.847585	 -1	 105	 400	 0	 0
Si	 -9.015814	 -7.509969	 -7.280771	 -2	 401	 183	 382	 399
O	 -10.540753	 -8.020542	 -7.345422	 -1	 402	 400	 0	 0
Si	 -12.099351	 -7.701274	 -7.582440	 -2	 330	 386	 403	 401
O	 -12.869236	 -9.064724	 -7.958308	 -1	 402	 1478	 0	 0
O	  9.480651	 -12.094009	 -16.458516	 -1	 1577	 1842	 0	 0
O	 -6.272915	 -23.449847	 -7.047896	 -1	 1371	 1580	 0	 0
O	 -27.245069	 -7.494997	  1.681445	 -1	 1418	 1088	 0	 0
Si	  18.152234	 -5.817706	 -4.624931	 -2	 1778	 2117	 1250	 1631
O	 -16.247618	 -14.603429	  9.931835	 -1	 1601	 1856	 0	 0
O	  11.363798	  2.103537	 -1.215912	 -1	 697	 1451	 0	 0
O	 -6.017002	  15.060269	  2.094704	 -1	 992	 1416	 0	 0
O	 -13.979172	 -14.487114	  11.256552	 -1	 1601	 1701	 0	 0
O	  6.283014	  0.900613	  5.414202	 -1	 958	 1791	 0	 0
O	 -0.707044	  7.947384	 -13.563979	 -1	 630	 1919	 0	 0
O	 -19.841530	 -12.455013	 -5.177132	 -1	 1714	 1948	 0	 0
O	 -0.415421	  9.232854	 -6.483833	 -1	 1642	 835	 0	 0
Si	 -13.573166	  7.903155	 -2.377842	 -2	 473	 1169	 974	 1632
Si	 -8.773593	 -15.041122	  10.956883	 -2	 738	 675	 573	 1110
O	 -18.389794	 -10.326132	 -14.135797	 -1	 1812	 1502	 0	 0
O	 -10.458113	 -14.670270	  14.199662	 -1	 1403	 824	 0	 0
Si	 -19.934100	  1.198717	 -3.454783	 -2	 1177	 770	 1743	 1809
O	  16.584764	 -2.946288	 -6.400560	 -1	 1876	 726	 0	 0
Si	  8.165241	  2.458494	 -10.046852	 -2	 1787	 1151	 1966	 1831
O	 -14.416542	 -9.676446	 -16.344748	 -1	 1841	 1079	 0	 0
O	  9.958660	 -6.688440	  14.052372	 -1	 1771	 1886	 0	 0
O	 -11.582086	 -16.336705	  8.611348	 -1	 1643	 1476	 0	 0
Si	  7.795951	 -11.723901	 -13.216926	 -2	 1124	 1493	 950	 943
O	 -16.901080	 -14.725467	 -8.422990	 -1	 499	 1349	 0	 0
O	  2.965365	 -4.721791	  11.374424	 -1	 937	 1745	 0	 0
O	 -15.512447	  1.697486	  3.209583	 -1	 468	 1245	 0	 0
O	  6.916882	 -7.769868	  7.014604	 -1	 1562	 461	 0	 0
O	  8.617293	  0.467887	 -15.632262	 -1	 1345	 439	 0	 0
Si	  17.529257	 -2.776750	 -0.247917	 -2	 1104	 1602	 1319	 1400
O	  12.279096	 -8.416777	 -11.137096	 -1	 1036	 1765	 0	 0
O	 -9.098819	  8.692933	 -7.331662	 -1	 1236	 757	 0	 0
O	 -19.022874	 -1.655393	 -15.735637	 -1	 1195	 821	 0	 0
O	 -7.372267	  10.202097	 -6.054485	 -1	 1836	 757	 0	 0
O	 -2.220450	 -22.462597	  7.356663	 -1	 1604	 781	 0	 0
O	  4.654301	  2.953412	  5.180148	 -1	 1791	 1944	 0	 0
Si	  8.776485	 -0.583782	 -14.424636	 -2	 545	 898	 1503	 431
O	  5.071091	  7.530087	 -10.713858	 -1	 1609	 1229	 0	 0
Si	 -12.778215	 -16.790473	  5.215720	 -2	 1314	 1420	 1727	 904
Si	  6.741010	 -2.928822	 -14.629978	 -2	 898	 1891	 1754	 1731
Si	 -19.003414	  0.766717	 -12.702063	 -2	 1354	 1258	 885	 1463
Si	 -0.287993	  8.687334	  2.047306	 -2	 369	 1963	 923	 532
O	 -1.445257	 -0.560809	 -14.017925	 -1	 610	 1875	 0	 0
Si	 -16.873053	  0.826497	  13.297541	 -2	 1033	 1194	 1238	 1607
O	 -19.356158	 -10.823260	  14.214702	 -1	 1721	 450	 0	 0
O	  19.809680	 -2.900800	 -3.131194	 -1	 1958	 1439	 0	 0
Si	 -14.444668	 -14.646637	 -17.605059	 -2	 905	 1590	 766	 936
Si	 -20.932902	 -10.499437	  14.212964	 -2	 666	 525	 2006	 447
O	  8.810691	  2.567157	 -0.797205	 -1	 530	 1451	 0	 0
O	  10.433112	  2.535536	  8.031369	 -1	 834	 813	 0	 0
O	  7.088419	 -16.310163	 -5.285704	 -1	 602	 1277	 0	 0
Si	 -4.508373	  2.606292	  10.516908	 -2	 1659	 220	 1228	 1032
Si	 -19.370077	 -11.425633	 -1.184683	 -2	 1828	 715	 1524	 1262
Si	 -0.920688	 -23.383913	 -9.630273	 -2	 1984	 2085	 1871	 1544
O	  6.621277	 -18.581008	 -17.193761	 -1	 1337	 765	 0	 0
O	 -27.495384	 -3.202849	  1.508481	 -1	 587	 1504	 0	 0
Si	  1.437644	 -16.438294	  0.393587	 -2	 1338	 1197	 398	 1597
O	 -1.807199	  14.965371	 -15.502002	 -1	 1507	 518	 0	 0
Si	  7.166440	 -9.239659	  7.620895	 -2	 1145	 627	 430	 504
Si	 -19.062367	 -8.816677	 -6.054950	 -2	 1474	 1867	 741	 864
O	 -19.400084	 -7.441040	  12.503791	 -1	 911	 599	 0	 0
O	 -12.325376	 -18.780823	 -0.369128	 -1	 1529	 1573	 0	 0
O	  4.794976	 -16.787394	 -17.801789	 -1	 765	 870	 0	 0
O	  9.697452	  5.517378	 -11.755398	 -1	 1557	 648	 0	 0
O	 -11.321359	 -2.107539	  15.025377	 -1	 1692	 1260	 0	 0
Si	 -15.942366	  0.394498	  4.050260	 -2	 721	 429	 1974	 352
Si	  13.100550	  3.775846	 -13.552970	 -2	 2033	 874	 598	 1191
O	 -9.193050	  6.709798	  14.797409	 -1	 555	 1630	 0	 0
O	 -10.960192	  9.556932	  11.162900	 -1	 1638	 983	 0	 0
O	  4.837328	 -20.170128	 -16.092001	 -1	 1337	 1835	 0	 0
O	 -14.134665	  7.846674	 -0.870754	 -1	 690	 416	 0	 0
O	 -7.256116	 -23.308112	  13.818760	 -1	 537	 1768	 0	 0
Si	  14.158794	 -3.029766	  2.548635	 -2	 817	 1988	 1374	 519
O	  12.755260	 -3.626916	  7.803535	 -1	 1025	 1212	 0	 0
O	 -10.239582	  8.089324	 -0.488125	 -1	 1313	 684	 0	 0
O	 -16.911670	 -0.141130	  0.548873	 -1	 702	 976	 0	 0
O	  14.208390	 -1.498265	 -1.155197	 -1	 1267	 678	 0	 0
O	 -25.648865	 -5.396710	  4.716757	 -1	 1029	 991	 0	 0
O	 -4.909371	 -22.540360	  14.716032	 -1	 537	 577	 0	 0
O	 -3.458353	  10.935253	  3.666418	 -1	 737	 792	 0	 0
O	 -20.651587	  0.397406	 -15.969692	 -1	 1195	 1206	 0	 0
O	  12.226976	 -10.459103	 -2.043355	 -1	 1073	 586	 0	 0
O	  16.777263	 -0.848110	  8.434474	 -1	 1167	 1040	 0	 0
Si	  1.448624	 -15.874420	 -16.058914	 -2	 594	 1407	 1084	 711
O	 -1.481631	  9.125049	  9.704760	 -1	 1585	 1733	 0	 0
Si	  2.967022	 -12.772713	  14.319642	 -2	 691	 866	 1931	 543
O	  4.191849	  10.004990	 -10.561418	 -1	 1185	 1609	 0	 0
O	 -22.566868	  0.971370	  14.144312	 -1	 1117	 1511	 0	 0
O	 -1.580206	 -24.822180	  2.823480	 -1	 1321	 1086	 0	 0
Si	 -24.132799	 -2.333988	  3.242798	 -2	 1227	 1264	 511	 1136
O	 -0.374739	 -14.042307	  15.184944	 -1	 788	 549	 0	 0
O	  7.811890	 -9.130996	  16.870542	 -1	 571	 1560	 0	 0
O	 -18.694833	 -1.729993	  1.651195	 -1	 1480	 976	 0	 0
Si	  13.950121	 -11.340713	 -12.615367	 -2	 969	 2043	 871	 1688
O	  2.833858	  5.510024	  13.164452	 -1	 1099	 1166	 0	 0
O	 -20.772217	 -12.023013	  4.070149	 -1	 1329	 710	 0	 0
Si	 -18.459678	 -14.406199	 -8.660009	 -2	 427	 995	 2132	 1815
O	 -6.302400	  11.753713	 -13.581689	 -1	 688	 536	 0	 0
Si	 -22.289693	 -3.756022	  1.208273	 -2	 1106	 1227	 795	 1031
O	  3.068551	  8.337977	 -16.148632	 -1	 625	 576	 0	 0
Si	  7.590581	 -18.045381	 -13.692374	 -2	 1017	 613	 2046	 1093
O	  8.743072	 -9.564318	  7.623171	 -1	 1881	 461	 0	 0
O	 -21.815608	 -0.358816	  12.005105	 -1	 1178	 1511	 0	 0
Si	  2.676040	 -14.261338	 -13.723960	 -2	 1913	 1127	 711	 567
Si	  1.416750	 -18.986373	  2.166170	 -2	 1937	 1435	 1597	 1232
O	 -6.735066	 -20.747232	  14.107376	 -1	 537	 1664	 0	 0
O	  2.735267	 -0.829890	  13.801708	 -1	 1042	 939	 0	 0
O	 -1.696179	  3.731825	 -14.190261	 -1	 1628	 1452	 0	 0
O	 -25.692791	 -2.014490	  3.005846	 -1	 492	 1504	 0	 0
O	  6.516349	  2.088835	 -13.313314	 -1	 1954	 1860	 0	 0
O	 -12.996011	 -4.119079	  15.291082	 -1	 1826	 1260	 0	 0
O	 -6.708128	  14.659403	 -15.981779	 -1	 982	 1126	 0	 0
O	 -21.135844	  3.501819	  2.585488	 -1	 1757	 735	 0	 0
Si	  2.436446	 -4.740140	 -17.274160	 -2	 1634	 1653	 742	 2176
Si	  1.220422	  9.804927	  17.744216	 -2	 2062	 605	 1174	 1039
Si	 -2.578885	  13.872446	 -16.398120	 -2	 833	 891	 460	 2028
O	  13.101466	 -2.051989	  3.265338	 -1	 475	 990	 0	 0
Si	  4.876334	 -4.054290	 -10.823970	 -2	 249	 244	 1909	 1456
O	 -10.083593	  8.834153	  13.533871	 -1	 555	 983	 0	 0
O	 -6.552714	  16.045861	 -13.754653	 -1	 1053	 1126	 0	 0
O	  5.531866	  2.231634	  7.552870	 -1	 1139	 1791	 0	 0
O	 -3.489325	  16.726813	 -4.116704	 -1	 1700	 647	 0	 0
O	 -21.703510	 -11.590526	  13.318058	 -1	 450	 1444	 0	 0
O	 -7.917325	 -0.989484	 -13.547752	 -1	 698	 736	 0	 0
O	  12.070843	 -11.845909	 -4.269314	 -1	 586	 596	 0	 0
O	 -0.144641	 -17.934208	  12.757661	 -1	 1558	 1710	 0	 0
Si	 -0.928456	 -25.930902	 -7.856987	 -2	 2082	 1202	 1822	 1544
Si	  7.233948	  2.890981	 -0.798943	 -2	 378	 451	 758	 1594
O	 -8.914921	  13.948733	  7.051541	 -1	 1265	 947	 0	 0
O	 -0.550944	  8.693049	  0.457480	 -1	 444	 1799	 0	 0
Si	 -7.533068	  11.997547	  3.568663	 -2	 1758	 1769	 1582	 718
O	 -0.762046	 -18.978187	 -4.876622	 -1	 1482	 899	 0	 0
O	 -17.084106	  8.398073	  12.849158	 -1	 1249	 1667	 0	 0
Si	 -5.670909	  11.133804	 -14.925337	 -2	 1623	 500	 700	 551
Si	 -6.485508	 -22.217023	  14.713666	 -2	 481	 474	 508	 1994
Si	 -0.426356	 -17.564340	  4.200695	 -2	 842	 1435	 397	 1045
O	 -27.474560	 -3.603583	  4.108100	 -1	 1029	 1504	 0	 0
O	  5.460493	 -14.257107	 -5.519197	 -1	 602	 1548	 0	 0
Si	 -1.851263	 -22.951078	 -0.383531	 -2	 621	 1158	 1639	 1200
Si	  4.508952	 -16.246988	  0.694577	 -2	 674	 1635	 1759	 1338
O	  1.407637	 -12.453701	  14.082061	 -1	 549	 488	 0	 0
O	  12.050131	 -11.444341	 -6.869473	 -1	 596	 845	 0	 0
O	  8.145174	  0.036871	 -13.079798	 -1	 1860	 439	 0	 0
O	 -13.121114	  5.912548	 -7.963251	 -1	 1050	 1077	 0	 0
Si	  6.867285	 -9.301369	  10.718437	 -2	 1145	 1738	 760	 672
O	 -8.134288	 -22.585848	  11.446666	 -1	 1263	 1768	 0	 0
Si	 -0.116515	 -12.964017	  14.017972	 -2	 1306	 644	 493	 543
O	 -17.209387	 -8.380704	  11.396533	 -1	 1289	 911	 0	 0
O	 -5.829494	  12.184987	 -16.133591	 -1	 982	 536	 0	 0
Si	 -12.343011	  11.507118	  14.644027	 -2	 2017	 1707	 1462	 1832
O	 -5.043784	  11.246279	 -5.441599	 -1	 1836	 1296	 0	 0
O	  10.223829	 -9.650726	 -7.477501	 -1	 645	 845	 0	 0
Si	 -10.513513	  7.531165	  14.374549	 -2	 521	 1855	 470	 918
Si	 -15.931387	  0.958371	 -12.402240	 -2	 1258	 1899	 1284	 562
O	  14.910000	 -4.958663	 -6.134316	 -1	 1155	 1876	 0	 0
O	 -3.239010	  12.434665	 -3.943740	 -1	 1750	 1296	 0	 0
Si	 -15.068927	 -11.604617	 -13.228516	 -2	 801	 708	 1921	 1705
Si	  5.877156	  9.634396	 -13.803635	 -2	 978	 1475	 972	 2030
Si	 -9.636659	 -2.477647	  11.783787	 -2	 1618	 178	 946	 1404
O	 -15.668436	  0.952656	 -10.812414	 -1	 1394	 556	 0	 0
Si	 -4.547353	 -8.402788	 -13.974625	 -2	 1113	 1946	 1103	 1656
Si	 -2.207400	 -2.016038	  12.509811	 -2	 1315	 1588	 271	 1920
O	  5.214045	 -0.649911	  12.941429	 -1	 939	 1384	 0	 0
Si	 -2.152780	  7.561031	  5.853853	 -2	 1763	 1308	 365	 368
O	  4.199585	 -13.750535	 -13.659243	 -1	 506	 1564	 0	 0
O	 -14.278259	 -7.693922	 -14.624693	 -1	 1563	 1079	 0	 0
O	  17.656617	 -3.322178	  8.281494	 -1	 1167	 679	 0	 0
Si	 -14.495973	  10.882979	  5.095615	 -2	 1801	 2018	 1171	 1440
Si	  9.307061	 -8.616354	  17.169166	 -2	 1030	 494	 1311	 2072
O	 -7.053360	 -13.551866	 -14.374634	 -1	 1613	 615	 0	 0
O	 -8.357169	 -16.291217	  11.880714	 -1	 417	 1111	 0	 0
O	 -3.500386	  9.244448	  14.177392	 -1	 1370	 848	 0	 0
O	 -17.682293	 -8.811977	  13.948436	 -1	 1721	 911	 0	 0
Si	  1.573380	  7.823334	 -16.447256	 -2	 1786	 2102	 502	 1071
Si	 -3.414088	 -22.024882	  15.014117	 -2	 481	 1074	 1485	 1999
O	 -15.343475	 -4.887180	  14.394976	 -1	 1826	 730	 0	 0
Si	  8.105681	 -7.124413	 -3.399110	 -2	 1561	 1500	 661	 238
O	 -20.563714	 -10.987918	  6.472771	 -1	 963	 710	 0	 0
O	 -15.275248	  7.243808	  5.973972	 -1	 1908	 1268	 0	 0
O	 -7.304280	 -4.302285	 -17.405285	 -1	 1885	 1471	 0	 0
Si	 -19.372097	 -13.416165	 -15.872765	 -2	 1364	 1893	 2135	 1976
O	 -0.929925	  14.242015	 -13.129930	 -1	 1377	 1507	 0	 0
Si	  6.015694	  3.824657	 -4.907249	 -2	 377	 1196	 1541	 1516
Si	  13.019434	 -10.908713	 -3.368086	 -2	 1578	 484	 2126	 527
Si	 -28.443863	 -4.139210	  0.606713	 -2	 2162	 1595	 458	 1301
Si	  2.782528	  8.878383	  2.347735	 -2	 650	 1963	 1591	 1824
O	 -10.270785	 -17.546296	 -4.029823	 -1	 1649	 1360	 0	 0
O	 -16.875991	  0.787998	 -18.554345	 -1	 1953	 915	 0	 0
O	 -0.201695	 -22.581996	  2.884031	 -1	 1321	 1335	 0	 0
O	  1.534037	 -2.374585	 -14.330242	 -1	 1081	 854	 0	 0
O	 -24.124473	 -8.866918	 -8.673655	 -1	 683	 743	 0	 0
O	  2.242297	 -16.325003	 -17.384900	 -1	 870	 486	 0	 0
O	 -8.983148	  1.817745	  15.472545	 -1	 1583	 1936	 0	 0
Si	  11.791907	 -12.522630	 -5.702500	 -2	 2116	 1328	 527	 544
O	 -4.953297	 -19.158139	  13.005121	 -1	 1358	 1664	 0	 0
O	  12.639588	  3.248272	 -15.000672	 -1	 1940	 469	 0	 0
Si	 -20.923628	 -7.951843	  12.439074	 -2	 666	 1156	 463	 2008
O	 -20.264049	  5.121343	  13.330673	 -1	 1417	 747	 0	 0
Si	 -26.294315	 -5.505373	 -4.532890	 -2	 1981	 1724	 1805	 1295
Si	  6.672894	 -15.058975	 -6.209512	 -2	 540	 453	 1782	 1696
O	  1.451563	 -15.835921	  15.792973	 -1	 1105	 788	 0	 0
Si	 -7.600509	 -0.133184	  11.990229	 -2	 1449	 1163	 1404	 935
O	  1.399790	  11.300989	  17.180425	 -1	 1114	 517	 0	 0
O	 -16.803052	 -11.286881	  13.795995	 -1	 1721	 867	 0	 0
O	 -5.680808	  17.666220	 -3.010008	 -1	 1700	 1773	 0	 0
O	 -18.701846	 -11.853239	 -12.021880	 -1	 1502	 1134	 0	 0
Si	 -22.590868	 -5.808264	 -10.382267	 -2	 1680	 1515	 2182	 1912
Si	 -0.496666	  0.376387	 -13.116696	 -2	 278	 445	 926	 968
O	 -7.638815	  15.091403	 -6.734498	 -1	 889	 997	 0	 0
O	  3.974261	 -7.606653	 -15.265097	 -1	 1681	 1741	 0	 0
O	  6.641382	 -18.982090	 -14.592975	 -1	 1337	 503	 0	 0
O	 -10.642551	  12.437733	  5.773152	 -1	 1265	 1209	 0	 0
Si	 -7.824639	 -14.915087	 -14.750435	 -2	 1089	 572	 1118	 686
Si	 -12.135703	 -16.720309	 -17.386519	 -2	 936	 844	 740	 896
O	 -18.805479	 -10.478156	  8.360683	 -1	 963	 1085	 0	 0
O	 -15.140606	  4.869901	 -13.798956	 -1	 1657	 1810	 0	 0
Si	  0.950402	  10.864290	 -12.070241	 -2	 1674	 1654	 1559	 1152
O	 -11.166400	 -16.184681	 -13.885132	 -1	 1965	 1520	 0	 0
O	 -1.601816	 -24.421704	  0.223298	 -1	 541	 1086	 0	 0
O	  17.500484	 -4.708984	  6.055535	 -1	 1556	 679	 0	 0
Si	  4.500398	 -18.794234	  2.467301	 -2	 1937	 2122	 1299	 1635
O	 -11.937763	 -9.496467	 -17.205027	 -1	 1841	 778	 0	 0
Si	  4.645295	  8.014153	 -16.146894	 -2	 972	 1109	 502	 2031
O	 -15.980983	 -0.573130	 -8.698408	 -1	 985	 1394	 0	 0
O	  6.395719	 -10.331584	  6.726527	 -1	 461	 1423	 0	 0
O	 -6.032557	 -24.206538	  9.128279	 -1	 1722	 1900	 0	 0
Si	  14.137899	 -5.577845	  4.321219	 -2	 817	 1678	 1271	 1896
Si	 -0.291408	  6.697032	 -12.640709	 -2	 1049	 1669	 413	 1015
O	  6.157845	 -15.877328	  3.961038	 -1	 1713	 1779	 0	 0
O	 -23.251780	 -7.246302	  2.071552	 -1	 1468	 1375	 0	 0
O	 -12.190428	  5.480548	 -17.210532	 -1	 1291	 1421	 0	 0
Si	  5.002498	 -10.427672	  14.524983	 -2	 1466	 1931	 927	 823
O	  8.473215	 -0.037729	  4.307034	 -1	 1261	 958	 0	 0
O	 -15.348015	 -9.244703	 -7.098029	 -1	 1147	 1478	 0	 0
O	 -16.683380	  2.887011	 -3.719850	 -1	 998	 759	 0	 0
O	 -2.010374	 -21.426988	  9.760407	 -1	 1244	 781	 0	 0
Si	 -14.148613	 -12.600977	 -6.023925	 -2	 1969	 706	 981	 799
O	  14.032760	 -2.484475	 -5.982571	 -1	 1483	 1876	 0	 0
O	 -7.463184	  16.077614	 -1.907125	 -1	 1605	 1773	 0	 0
O	 -20.480243	 -12.490531	  8.626927	 -1	 963	 798	 0	 0
O	 -20.021676	 -13.353547	  1.932110	 -1	 1329	 1201	 0	 0
O	 -1.106299	 -11.710648	  14.221820	 -1	 881	 549	 0	 0
Si	  8.729153	 -10.166690	 -7.776214	 -2	 554	 1429	 1894	 791
O	 -10.247202	 -2.033436	 -14.160572	 -1	 669	 736	 0	 0
Si	 -2.276923	  15.924945	 -4.807019	 -2	 681	 2026	 524	 1247
Si	  8.173908	  5.006575	 -11.820115	 -2	 466	 1571	 756	 1831
Si	 -0.376396	 -5.991386	  12.239727	 -2	 1381	 917	 784	 272
O	  3.344746	  8.935212	  0.839480	 -1	 588	 880	 0	 0
O	 -23.445040	  1.693634	  11.772218	 -1	 1511	 775	 0	 0
O	  5.598776	 -12.274583	 -3.799142	 -1	 1548	 1509	 0	 0
O	  11.431385	 -9.486068	  0.264430	 -1	 1073	 1726	 0	 0
Si	 -1.552827	 -22.889716	 -3.479906	 -2	 1297	 1895	 1820	 1639
O	 -5.844275	  2.096186	 -16.808122	 -1	 1002	 1797	 0	 0
O	 -6.755778	 -20.345664	  11.507217	 -1	 1263	 1664	 0	 0
O	 -20.251166	 -9.462132	  4.358765	 -1	 820	 710	 0	 0
Si	  4.797127	 -16.749152	  14.049535	 -2	 1955	 1883	 1436	 2120
O	 -14.997157	 -3.311418	  9.856241	 -1	 1397	 1318	 0	 0
O	 -7.067867	  1.243781	 -14.641458	 -1	 698	 1797	 0	 0
O	  7.826744	 -7.801135	 -4.832296	 -1	 1625	 579	 0	 0
O	 -15.819527	 -9.676206	 -4.546193	 -1	 1147	 832	 0	 0
O	 -1.871065	  7.191163	  14.410819	 -1	 1916	 848	 0	 0
O	 -1.773961	 -15.880923	  12.524234	 -1	 1003	 1558	 0	 0
O	  8.623183	  5.442440	  17.431090	 -1	 1905	 1732	 0	 0
O	 -21.182460	 -9.029646	  13.606674	 -1	 450	 599	 0	 0
Si	  10.861220	 -12.090631	  3.544781	 -2	 809	 2114	 1092	 1823
O	 -6.786205	 -18.441659	 -13.695249	 -1	 1004	 1279	 0	 0
Si	 -11.770747	 -2.544238	 -14.225290	 -2	 1276	 1453	 646	 1968
O	  2.624135	  10.402821	  12.490506	 -1	 1274	 1214	 0	 0
O	  0.155527	 -4.614769	 -14.390793	 -1	 1081	 1951	 0	 0
O	  6.687805	 -10.798267	  11.282766	 -1	 1346	 547	 0	 0
O	 -18.544753	  3.751011	  14.774712	 -1	 1417	 1967	 0	 0
O	  5.071170	 -16.190158	 -0.813678	 -1	 921	 542	 0	 0
O	 -9.234555	 -15.568696	  9.509181	 -1	 417	 1476	 0	 0
O	 -8.414087	  16.909860	  4.739909	 -1	 1186	 1028	 0	 0
Si	  13.535928	  0.012025	  6.925111	 -2	 852	 1525	 1046	 1600
Si	  14.457948	 -2.968056	 -0.548907	 -2	 1602	 1020	 479	 1988
Si	  18.449075	 -3.771788	  6.956764	 -2	 569	 2110	 622	 1192
O	  11.499612	  2.644920	 -8.156575	 -1	 1323	 960	 0	 0
O	 -2.737885	  15.397371	 -6.254721	 -1	 647	 1176	 0	 0
O	  3.864289	 -16.355394	 -8.554509	 -1	 1839	 1568	 0	 0
Si	 -22.600142	 -8.355858	 -8.608376	 -2	 593	 1898	 1473	 1912
Si	 -10.801080	  8.032842	  1.018962	 -2	 1793	 477	 230	 1781
O	  11.655601	  3.389750	  5.865422	 -1	 834	 1454	 0	 0
O	 -9.384024	 -14.596076	 -14.988015	 -1	 615	 1520	 0	 0
O	  2.647418	 -19.230207	 -14.984182	 -1	 1161	 1835	 0	 0
Si	 -7.514801	  12.555581	 -12.891374	 -2	 802	 500	 1670	 1648
O	 -0.239791	  10.219064	 -1.656460	 -1	 1334	 1799	 0	 0
Si	 -13.872321	  7.841445	  0.719700	 -2	 473	 1793	 1057	 774
O	  3.126214	 -13.824381	  15.527268	 -1	 1105	 488	 0	 0
O	  4.056901	 -14.256381	  6.279987	 -1	 1603	 1880	 0	 0
Si	  7.243221	  5.438575	 -2.572834	 -2	 1594	 1196	 1838	 1775
Si	  3.102578	  11.488172	 -2.522391	 -2	 971	 1243	 2052	 814
O	  10.417835	 -7.551943	  7.356927	 -1	 1881	 925	 0	 0
O	 -15.222733	  7.534073	 -5.645403	 -1	 1655	 1864	 0	 0
Si	  12.156863	  1.653440	 -2.541271	 -2	 409	 930	 1990	 1159
Si	 -6.651734	 -0.007893	 -13.718278	 -2	 913	 188	 660	 526
O	 -20.952362	 -12.921547	  11.179391	 -1	 1444	 798	 0	 0
O	 -4.112311	  10.814536	 -14.688319	 -1	 1239	 536	 0	 0
O	 -12.618137	 -18.313562	 -4.926467	 -1	 1986	 1360	 0	 0
Si	 -17.162014	  1.328404	 -0.057979	 -2	 892	 478	 895	 1776
O	 -14.595789	 -10.573888	 -9.235484	 -1	 794	 1478	 0	 0
O	  1.311003	 -15.892517	 -8.136991	 -1	 1221	 1839	 0	 0
O	 -21.636182	  0.539370	  4.897031	 -1	 1115	 1612	 0	 0
O	 -15.097093	 -13.537338	 -6.925692	 -1	 1349	 639	 0	 0
O	  9.403790	 -0.470564	 -4.939708	 -1	 953	 1825	 0	 0
O	 -16.563492	 -12.119746	 -13.527768	 -1	 1502	 559	 0	 0
O	 -4.315554	 -25.577732	  10.572362	 -1	 1722	 1911	 0	 0
Si	 -20.001608	 -10.931923	  4.965055	 -2	 657	 498	 1627	 580
O	  2.397103	 -14.938059	 -15.157146	 -1	 506	 486	 0	 0
O	 -8.513157	 -17.036047	 -2.141283	 -1	 1649	 1446	 0	 0
O	  3.827824	 -17.284779	  10.548148	 -1	 1633	 1599	 0	 0
O	 -20.984120	 -7.130244	  3.395708	 -1	 820	 1468	 0	 0
O	 -19.549556	 -12.922530	 -0.620354	 -1	 1201	 455	 0	 0
O	  8.430684	  3.344262	  2.596056	 -1	 1067	 1703	 0	 0
O	 -15.050297	 -1.005130	 -17.945689	 -1	 915	 999	 0	 0
O	 -5.974470	  11.678278	  3.805682	 -1	 533	 792	 0	 0
Si	 -3.944664	 -13.992310	 -16.579685	 -2	 1087	 948	 1393	 1415
Si	 -16.298161	 -11.234814	 -0.884321	 -2	 993	 1524	 309	 1767
O	 -16.734824	  0.844107	  5.374991	 -1	 468	 1312	 0	 0
Si	 -6.787178	 -24.267943	  3.123215	 -2	 1419	 2078	 1359	 1320
O	 -23.095759	 -5.860331	  4.298050	 -1	 1468	 991	 0	 0
O	  11.587981	 -8.741725	  14.285799	 -1	 1886	 1222	 0	 0
O	 -8.789352	 -17.633282	 -19.129395	 -1	 1207	 1904	 0	 0
Si	  18.161395	 -3.270946	 -6.398284	 -2	 1778	 803	 421	 2038
O	  3.141603	 -3.736067	  16.201170	 -1	 1833	 1256	 0	 0
O	 -14.982375	  6.777382	  10.530772	 -1	 1372	 750	 0	 0
O	  12.138463	  0.285566	 -12.689691	 -1	 1748	 1199	 0	 0
Si	 -15.804616	 -5.415498	  12.946085	 -2	 578	 1518	 1302	 1064
O	  5.866042	 -17.163541	 -3.120296	 -1	 921	 1277	 0	 0
O	 -7.368035	 -12.075658	  12.506996	 -1	 1153	 970	 0	 0
O	  5.918881	 -15.120867	 -12.215203	 -1	 1818	 1564	 0	 0
O	  4.935356	 -16.731542	  6.126985	 -1	 1713	 1603	 0	 0
Si	 -22.084435	  2.564623	  1.684259	 -2	 1148	 515	 2164	 956
Si	 -8.687098	 -2.352099	 -13.924159	 -2	 526	 1508	 390	 646
Si	 -2.139780	  10.115436	  4.089434	 -2	 482	 923	 1698	 1763
O	 -7.507216	 -14.059274	  10.786919	 -1	 417	 970	 0	 0
O	  12.362072	 -9.918068	 -8.982851	 -1	 1036	 845	 0	 0
O	 -11.187224	 -15.783948	 -16.484752	 -1	 616	 1520	 0	 0
O	 -17.538711	 -8.305040	 -5.990771	 -1	 1147	 462	 0	 0
O	  2.257146	 -6.236294	 -16.708641	 -1	 516	 1741	 0	 0
Si	 -25.683071	 -8.547649	 -8.910674	 -2	 593	 1241	 2136	 744
O	 -26.314383	 -7.926997	 -7.565836	 -1	 959	 743	 0	 0
O	 -6.531890	  15.645128	 -11.155034	 -1	 761	 1053	 0	 0
Si	  6.311748	  5.870318	  6.673885	 -2	 1362	 1282	 1293	 1584
Si	 -21.787593	  4.610540	  13.265955	 -2	 986	 1496	 2014	 600
O	 -9.677686	 -20.584017	 -8.172326	 -1	 890	 1162	 0	 0
O	 -3.879255	  14.794249	  0.589443	 -1	 916	 1416	 0	 0
Si	 -14.824689	  5.725108	  11.739003	 -2	 912	 1725	 1189	 728
Si	  1.553092	  5.274768	 -14.675301	 -2	 1071	 1543	 1015	 1160
O	 -10.322558	  9.590615	 -2.642370	 -1	 1313	 851	 0	 0
O	 -2.121876	  11.484632	  14.237944	 -1	 1370	 1851	 0	 0
O	 -11.446351	  7.924923	 -8.229495	 -1	 1236	 1077	 0	 0
O	 -5.394743	 -24.172112	 -4.675802	 -1	 1580	 1357	 0	 0
O	  7.894859	  4.329019	 -13.252762	 -1	 1954	 648	 0	 0
Si	 -8.637858	  9.220507	 -5.883960	 -2	 434	 1075	 436	 223
O	  6.672449	  2.834499	  0.708144	 -1	 530	 1703	 0	 0
Si	 -16.841785	  3.938937	 -4.926915	 -2	 1706	 637	 1814	 1906
O	  8.362457	 -8.786727	  11.017061	 -1	 1481	 547	 0	 0
Si	 -6.282153	  14.176080	 -10.547554	 -2	 745	 802	 1331	 1957
Si	  5.016892	 -7.873496	  12.760498	 -2	 1466	 1738	 1522	 1000
O	 -3.091924	 -20.022139	 -5.489441	 -1	 899	 966	 0	 0
O	  2.101400	  7.840591	  12.201306	 -1	 1099	 1214	 0	 0
Si	  6.370933	 -17.111474	 -17.800613	 -2	 457	 2044	 800	 465
O	 -14.165620	 -13.969080	 -16.172412	 -1	 449	 1887	 0	 0
O	 -13.844223	  9.774257	 -5.584852	 -1	 1010	 1655	 0	 0
O	 -2.512286	 -24.389951	  12.070827	 -1	 1587	 1911	 0	 0
O	 -17.831766	 -14.293468	  0.824290	 -1	 1201	 1973	 0	 0
O	 -18.357357	  0.874893	 -3.453045	 -1	 420	 998	 0	 0
Si	 -6.911433	 -15.904864	 -7.537117	 -2	 1889	 129	 1012	 134
Si	 -5.774881	 -10.016706	 -16.309040	 -2	 1091	 1784	 1766	 1656
O	 -9.340098	 -17.978296	 -13.277104	 -1	 1004	 1965	 0	 0
O	 -14.051689	  6.345383	  1.283491	 -1	 690	 1806	 0	 0
Si	 -23.015009	  2.997457	  10.931002	 -2	 986	 651	 1043	 2167
Si	  5.507866	 -4.548000	 -16.973709	 -2	 1731	 2036	 1653	 942
O	  4.987587	 -14.688381	 -2.967294	 -1	 921	 1548	 0	 0
Si	 -11.168776	 -8.134109	 -16.829182	 -2	 1570	 1843	 1022	 624
O	  2.330476	  10.868990	  7.933144	 -1	 1410	 1251	 0	 0
O	 -7.582471	 -17.468047	 -11.388564	 -1	 1004	 1854	 0	 0
Si	 -2.781949	 -22.519078	  8.863750	 -2	 1882	 1932	 437	 638
O	 -21.650389	 -11.300748	  1.698055	 -1	 1329	 1231	 0	 0
Si	  4.896622	 -1.505724	 -12.595925	 -2	 1553	 1754	 1679	 1456
O	 -1.146889	 -7.354349	  11.864488	 -1	 649	 1606	 0	 0
O	 -8.861911	  14.237677	 -4.567924	 -1	 997	 1112	 0	 0
Si	  6.004714	  3.260784	  11.545252	 -2	 1137	 1770	 825	 1013
O	  3.312936	 -16.699921	 -2.701589	 -1	 921	 1566	 0	 0
Si	 -0.125181	 -15.512098	  15.791235	 -2	 1513	 603	 2075	 493
Si	 -12.642480	  7.471155	 -11.625123	 -2	 1641	 952	 1572	 856
O	 -14.690019	 -12.557023	  12.893587	 -1	 867	 1701	 0	 0
O	  7.671937	 -9.188079	 -7.060050	 -1	 1625	 645	 0	 0
Si	 -4.449420	  12.189686	  3.869794	 -2	 482	 1442	 1069	 718
O	 -17.470595	  3.825114	 -14.411237	 -1	 1810	 1877	 0	 0
Si	 -15.367475	 -11.666813	 -10.131602	 -2	 1409	 1705	 1340	 703
O	 -21.024103	 -2.774432	  1.037747	 -1	 501	 1480	 0	 0
O	 -14.528460	  1.556008	 -17.656511	 -1	 915	 843	 0	 0
Si	  12.169864	  4.207846	 -4.305690	 -2	 2185	 930	 1663	 1240
Si	 -20.321658	 -13.541713	  9.835181	 -2	 642	 699	 2004	 1068
O	 -13.718582	 -11.297154	 -6.865141	 -1	 1478	 639	 0	 0
O	  7.142507	 -16.019384	 -16.903956	 -1	 765	 1150	 0	 0
O	 -14.010992	 -12.582880	 -13.945847	 -1	 559	 1887	 0	 0
O	 -7.053660	  13.083899	 -11.442483	 -1	 761	 688	 0	 0
O	  18.932295	 -2.178278	 -5.502727	 -1	 726	 1958	 0	 0
O	  10.277090	  1.149566	  5.804871	 -1	 834	 1261	 0	 0
O	 -14.119916	 -5.785606	  9.704496	 -1	 1397	 1094	 0	 0
O	 -10.442725	 -4.581956	  14.873564	 -1	 1636	 1260	 0	 0
Si	 -7.855795	 -18.026692	  3.473482	 -2	 1234	 1275	 1850	 144
O	  10.560519	 -7.046097	 -12.582302	 -1	 1765	 1752	 0	 0
O	  11.140157	 -11.413909	  4.977967	 -1	 667	 1555	 0	 0
O	 -16.959073	 -12.672852	  11.569498	 -1	 867	 1856	 0	 0
O	 -2.664009	 -13.757889	  11.260607	 -1	 1003	 1414	 0	 0
O	 -4.488126	  5.028659	  13.551043	 -1	 1569	 1665	 0	 0
Si	  9.374502	  3.514378	  8.747599	 -2	 1723	 452	 1956	 1647
O	  1.542586	  11.807670	 -2.759343	 -1	 1334	 694	 0	 0
Si	 -3.288725	  1.672386	  14.625147	 -2	 1402	 869	 1070	 1470
Si	 -26.285761	 -2.958127	 -6.305614	 -2	 1531	 1724	 2139	 1063
O	  13.979314	 -4.526663	  3.112965	 -1	 475	 629	 0	 0
O	 -0.582798	 -13.123797	 -14.844201	 -1	 1457	 1685	 0	 0
O	  11.295683	 -10.026617	  7.204554	 -1	 1881	 1555	 0	 0
Si	 -19.992942	 -8.383842	  3.191793	 -2	 657	 714	 1062	 902
Si	 -18.392170	 -2.275559	 -17.079847	 -2	 435	 2140	 1021	 1550
Si	 -3.211024	  14.366643	 -10.247753	 -2	 1331	 1646	 1614	 1840
O	  6.214899	 -11.229540	  13.834668	 -1	 1346	 634	 0	 0
Si	 -10.637481	 -16.166332	  14.763452	 -2	 1554	 419	 1796	 2002
O	  5.741763	  3.266499	  9.955425	 -1	 786	 1139	 0	 0
Si	 -3.222004	  13.802769	  6.204747	 -2	 849	 906	 1442	 994
Si	 -26.593470	 -5.567083	 -1.435348	 -2	 1595	 1805	 838	 1918
O	  12.118247	  0.685813	 -15.289939	 -1	 1940	 1199	 0	 0
O	  7.686607	  0.899887	 -6.384981	 -1	 953	 863	 0	 0
Si	 -4.276659	 -9.462729	  15.840932	 -2	 2076	 1356	 908	 1494
O	 -6.116320	 -22.705504	  6.973473	 -1	 1011	 1900	 0	 0
Si	 -15.999614	 -11.172617	 -3.981235	 -2	 1037	 981	 662	 1767
O	 -2.328540	  12.402912	 -15.791268	 -1	 518	 1239	 0	 0
Si	  11.225681	  2.086761	  6.706099	 -2	 804	 685	 1046	 452
Si	 -1.209094	  9.683437	 -5.157847	 -2	 1615	 1310	 302	 415
O	 -13.428194	 -5.461144	 -15.719027	 -1	 1563	 1216	 0	 0
O	  18.180856	 -0.848836	 -3.364710	 -1	 1278	 1958	 0	 0
O	 -25.098298	 -5.052441	 -1.136724	 -1	 827	 1486	 0	 0
[...]
 1893      O     -19.7891280000   -12.1655830000   -16.7959680000
 1894      O       8.4662020000   -10.1609750000    -9.3660410000
 1895      O      -3.0473910000   -23.4048460000    -3.7791580000
 1896      O      13.3681250000    -6.9404610000     3.9448120000
 1897      O     -11.8979600000   -13.8530220000   -14.8482560000
 1898      O     -22.3210930000    -7.6783010000    -7.1757290000
 1899      O     -14.8734520000    -0.0198920000   -13.1195710000
 1900      Si     -5.8539760000   -22.7107330000     8.5639270000
 1901      Si    -16.9303000000   -10.7406170000     5.2660460000
 1902      Si    -11.8388620000   -14.6743920000    -5.8048240000
 1903      O     -20.2194040000     1.7394710000    15.0404170000
 1904      Si     -7.2133950000   -17.9573630000   -19.1282190000
 1905      Si      8.4438150000     3.9463770000    17.9948800000
 1906      O     -16.0721910000     5.3008090000    -4.5516980000
 1907      O       3.2097180000     8.3940860000     7.7807040000
 1908      Si    -15.7369960000     6.7159770000     4.5257080000
 1909      O       5.9341580000    -5.0333880000   -11.5407620000
 1910      O      -7.8262960000    -6.8641660000   -17.6956520000
 1911      Si     -2.7912220000   -25.0666730000    10.6376410000
 1912      O     -22.3413100000    -7.2780550000    -9.7759770000
 1913      O       2.4179270000   -15.3387930000   -12.5575260000
 1914      O      11.1976550000   -13.4652030000   -15.0144320000
 1915      O      -1.1704770000    10.6510640000     7.5908210000
 1916      Si     -1.2403610000     6.5709970000    13.0666090000
 1917      Si     -5.5461550000   -20.1009420000     3.6931220000
 1918      O     -26.7729500000    -7.0639810000    -0.8710190000
 1919      Si     -0.2770130000     9.2512070000   -14.4051950000
 1920      O      -1.2588090000    -1.0788430000    13.4110390000
 1921      O     -14.8888400000   -10.1082060000   -13.7934740000
 1922      O       7.1469790000   -11.6617690000     4.5873210000
 1923      O      11.1551230000   -10.0832120000   -16.7254100000
 1924      O     -13.7607270000   -12.9887930000     3.6463720000
 1925      Si     10.2949950000     2.5187610000    15.9533800000
 1926      O     -11.4775540000   -17.7106970000   -11.7711930000
 1927      O     -15.2797870000     2.8862850000   -15.5190340000
 1928      O       4.5290200000   -13.8253650000     3.7275230000
 1929      O       2.0446610000   -18.8736420000    11.6504700000
 1930      O      -8.6894750000     5.6984740000   -16.8682090000
 1931      O       3.7375150000   -11.4097490000    14.6948810000
 1932      O      -2.5323910000   -23.9888690000     9.4700410000
 1933      O     -15.6854910000    10.2371750000    15.5104960000
 1934      O       7.0071910000   -13.6448990000     2.8678710000
 1935      O      -9.3918710000     9.1586150000   -11.8896510000
 1936      Si     -9.4442890000     1.2894270000    14.0236540000
 1937      O       2.9753480000   -19.3056420000     2.4031890000
 1938      Si    -13.7095080000   -16.3579870000    14.4636290000
 1939      O      -5.6368820000    14.2839990000    -1.2990960000
 1940      Si     11.8686880000     2.1556040000   -15.8962290000
 1941      O      -8.1681330000     8.2609330000   -16.5789430000
 1942      Si     13.0331090000    -8.3548850000    -5.1314040000
 1943      O       0.3797420000     8.2610490000    -8.7898010000
 1944      Si      5.0836130000     4.2568870000     4.3400990000
 1945      O      -2.4284180000   -10.9288440000   -18.0524540000
 1946      O      -3.0238090000    -7.8919860000   -13.9099070000
 1947      Si    -21.1632220000     1.5693550000     8.8888740000
 1948      Si    -19.0709220000   -11.3639230000    -4.2822250000
 1949      Si      8.7082580000   -12.7147700000    -6.0036310000
 1950      O     -13.6651020000   -11.0058880000   -18.4827650000
 1951      Si      0.5725570000    -5.8653510000   -13.4675910000
 1952      O       0.6119000000    12.2396700000     6.4879380000
 1953      Si    -18.3712750000     0.2725210000   -18.8524300000
 1954      Si      6.9463800000     3.3926580000   -14.1545300000
 1955      O       4.0046690000   -16.2995420000    15.3742660000
 1956      O       9.5538700000     5.0104400000     8.1838090000
 1957      O      -6.8437630000    14.1187640000    -9.0399270000
 1958      Si     19.3932570000    -1.6507040000    -4.0550250000
 1959      Si     -7.7201710000     6.2341010000   -13.3668220000
 1960      O       0.7957120000   -10.8836130000   -14.7836490000
 1961      O      -3.2491320000    -1.7481040000   -15.5157620000
 1962      Si     -3.9912090000   -23.5749620000    -9.9307010000
 1963      O       1.2072900000     9.2028110000     2.3453910000
 1964      O       9.3613700000     2.9122620000    -6.6512250000
 1965      Si    -10.9160550000   -17.6542150000   -13.2782800000
 1966      O       7.3946330000     1.3674050000   -10.9417590000
 1967      Si    -18.7248400000     2.2546000000    15.3396690000
 1968      O     -12.7618130000    -1.2898050000   -14.0219130000
 1969      O     -12.8300400000   -13.4207930000    -5.6009080000
 1970      Si     -8.5674360000    -8.7193850000    11.4328920000
 1971      O       9.2931430000    -9.2187260000     1.7697800000
 1972      O      -0.9713500000    12.5507230000    -2.6195840000
 1973      Si    -16.3073230000   -13.7815730000     0.8890310000
 1974      O     -16.8909570000    -0.5426980000     3.1490320000
 1975      O      -7.2901400000     7.5379250000   -14.2080380000
 1976      O     -18.1596960000   -14.2180330000   -16.5630800000
 1977      O       3.4865950000    -2.1601670000    11.6642300000
 1978      O       9.3256920000     1.9831340000    12.4519930000
 1979      Si     -3.2076100000    16.3569450000     4.4402620000
 1980      O      11.3485210000    -7.9839420000    -1.8903530000
 1981      O     -24.7181790000    -5.8287100000    -4.5305240000
 1982      O       6.9046070000     6.8131200000    15.9858840000
 1983      O     -10.3744980000     7.5490320000     6.4525590000
 1984      O      -2.4965330000   -23.0589970000    -9.6319880000
 1985      O      -3.2922710000     1.6343740000   -17.2261120000
 1986      Si    -13.0793900000   -18.8427150000    -6.3748190000
 1987      Si      4.6361330000     5.4673940000   -14.3735420000
 1988      O      13.8958430000    -3.0240510000     0.9588090000
 1989      O       2.3822490000   -16.2679210000     6.5456920000
 1990      O      11.2077770000     0.7175660000    -3.4424100000
 1991      Si     -7.7071710000     8.7885070000   -15.1312410000
 1992      Si    -11.4332190000     8.5270390000     7.1693290000
 1993      O      -5.1019830000   -24.6393730000    -0.1184630000
 1994      H      -6.9365500000   -22.2621000000    15.9254310000
 1995      H      -8.7345650000   -24.6250600000    12.5067630000
 1996      H      -6.4929840000   -26.3539660000    10.0348600000
 1997      H      -1.9957370000   -26.0740160000    10.4740580000
 1998      H      -0.5024810000   -24.1122150000    13.3117660000
 1999      H      -3.2032860000   -22.0297190000    16.2901130000
 2000      H     -13.7171640000   -20.4956740000     9.7836340000
 2001      H     -15.9579580000   -18.7665100000    12.2560980000
 2002      H     -10.4266800000   -16.1711700000    16.0394480000
 2003      H     -14.1599430000   -16.4035500000    15.6747660000
 2004      H     -20.9405570000   -14.6371240000     9.5329690000
 2005      H     -23.1813520000   -12.9079610000    12.0054340000
 2006      H     -21.3841230000   -10.5452580000    15.4235400000
 2007      H     -17.6500730000   -10.3126200000    15.7887830000
 2008      H     -21.7192260000    -6.9453340000    12.6031960000
 2009      H     -15.0237970000    -3.8403330000    16.5011090000
 2010      H     -29.4740590000    -7.4814110000     2.5074880000
 2011      H     -27.6768300000    -5.1187080000     5.9255950000
 2012      H     -24.0445300000    -0.3453210000    12.8328770000
 2013      H     -22.2473020000     2.0173820000    16.2509830000
 2014      H     -22.5830790000     5.6178830000    13.4295380000
 2015      H     -15.8863680000     8.7218200000    17.3279240000
 2016      H     -16.2221450000    12.3223220000    14.5064790000
 2017      H     -11.7241110000    12.6025290000    14.9462390000
 2018      H     -15.2914580000    11.8903220000     5.2591980000
 2019      H      -8.5953540000    14.9947460000     9.1582120000
 2020      H      -8.9306360000    18.5939250000     6.3366780000
 2021      H      -4.4326030000    18.8741330000     6.7764370000
 2022      H      -7.9999500000    18.1619250000    -2.9106030000
 2023      H      -3.5019160000    18.4421330000    -2.4708440000
 2024      H      -7.0692630000    17.7299260000   -12.1578840000
 2025      H      -2.5712300000    18.0101330000   -11.7181250000
 2026      H      -1.2611220000    16.7129700000    -4.9433080000
 2027      H      -0.3296490000    16.2812270000   -14.1900280000
 2028      H      -2.1276640000    13.9182670000   -17.6086960000
 2029      H       4.6521640000    12.1515840000   -11.4674600000
 2030      H       6.8937450000    10.4226770000   -13.9393630000
 2031      H       5.0957300000     8.0597170000   -17.3580310000
 2032      H      11.8763440000     6.2932910000   -11.2162340000
 2033      H      14.1177450000     4.5636410000   -13.6893260000
 2034      H      12.3197310000     2.2006810000   -17.1079940000
 2035      H      12.6550120000    -1.3984990000   -14.2864600000
 2036      H       5.9596950000    -4.5026660000   -18.1849130000
 2037      H      20.4099570000    -0.8615870000    -4.1912910000
 2038      H      18.6119420000    -3.2245470000    -7.6099600000
 2039      H      12.7389150000    -6.2688620000   -12.0430490000
 2040      H      14.9803170000    -7.9985120000   -14.5161410000
 2041      H      13.1830880000   -10.3612150000   -17.9342480000
 2042      H      13.5180790000   -13.9619730000   -15.1133640000
 2043      H      15.0107270000   -11.9996860000   -12.2750290000
 2044      H       6.8227610000   -17.0661400000   -19.0118170000
 2045      H       7.1580430000   -20.6653200000   -16.1902830000
 2046      H       8.6504000000   -18.7046110000   -13.3525970000
 2047      H       2.6606170000   -20.9460140000   -16.6306700000
 2048      H      14.1474810000     0.5630450000   -11.4493140000
 2049      H      -1.2644850000     1.3556270000   -18.4361390000
 2050      H      -8.4878790000     7.2141770000   -18.6868030000
 2051      H       5.9623840000    10.8552550000    -4.6931820000
 2052      H       3.7214770000    12.5835830000    -2.2201790000
 2053      H      -2.1916960000    17.1458040000     4.3034340000
 2054      H      -4.8620910000    15.2271260000     9.5228940000
 2055      H      -2.6379290000    13.1673750000    15.8346230000
 2056      H       1.8594970000    13.4480690000    16.2750110000
 2057      H     -12.1531040000     8.9542010000    17.6926060000
 2058      H     -18.5132520000     2.2500200000    16.6162260000
 2059      H      -8.6629740000     2.8632710000    17.5785890000
 2060      H      -4.9289240000     3.0959080000    17.9438320000
 2061      H      -2.3026470000     9.5681960000    18.6561580000
 2062      H       1.4306160000     9.8005760000    19.0208390000
 2063      H       4.1010110000    11.7192550000    13.8013800000
 2064      H       2.7907910000    13.0155830000     7.0271020000
 2065      H     -14.3600970000    11.4577440000    -3.9869830000
 2066      H       5.0316970000    11.2872550000     4.5540990000
 2067      H       9.0836100000     7.5898680000    16.5245090000
 2068      H       4.9207460000     3.7096460000    18.9068220000
 2069      H       8.6547960000     3.9422840000    19.2720660000
 2070      H      -1.4395810000    -2.9952790000    17.8292530000
 2071      H       2.2944690000    -2.7626410000    18.1944970000
 2072      H       9.5178630000    -8.6211910000    18.4451610000
 2073      H       5.7838130000    -8.8538290000    18.0799180000
 2074      H       3.1570410000   -15.3247940000    17.3676820000
 2075      H      -0.5762230000   -15.5571750000    17.0030000000
 2076      H      -4.0663530000    -9.4662450000    17.1170170000
 2077      H      -7.8004030000    -9.6988820000    16.7517740000
 2078      H      -7.8038780000   -25.0570600000     3.2594820000
 2079      H      -5.5616900000   -26.7864530000     0.7869510000
 2080      H      -1.0642640000   -26.5057590000     1.2273380000
 2081      H      -4.6310040000   -27.2184520000    -8.4603300000
 2082      H      -0.1329700000   -26.9382450000    -8.0205710000
 2083      H      -6.8724050000   -25.4888030000    -5.9872370000
 2084      H       1.3588920000   -24.9762150000    -5.1827960000
 2085      H      -0.4687470000   -23.3377440000   -10.8420150000
 2086      H      -4.2027980000   -23.5703810000   -11.2072590000
 2087      H     -13.1651120000   -20.0622530000   -15.4851830000
 2088      H      -6.4256770000   -21.5116950000   -17.5185160000
 2089      H     -10.9237110000   -21.7919020000   -17.9582760000
 2090      H      -6.7615660000   -17.9120290000   -20.3394220000
 2091      H     -10.4956160000   -18.1446660000   -20.7046660000
 2092      H     -13.9849600000   -12.0534790000   -20.5900870000
 2093      H     -17.7190100000   -12.2861170000   -20.9553300000
 2094      H      -0.4012390000   -11.2071040000   -19.2618530000
 2095      H      -4.1346820000   -11.4402280000   -19.6277250000
 2096      H      -7.6246330000    -5.3485540000   -19.5125180000
 2097      H     -11.3580760000    -5.5816780000   -19.8783890000
 2098      H     -14.8488130000     0.5097380000   -19.7637440000
 2099      H     -18.5820760000     0.2773580000   -20.1284260000
 2100      H      -4.9977490000     1.1232470000   -18.8008210000
 2101      H     -12.2211420000     6.9817960000   -19.0514850000
 2102      H       1.3630730000     7.8268500000   -17.7233410000
 2103      H      -5.8611070000    13.6851430000   -17.9745670000
 2104      H      10.9448710000     6.7250340000    -1.9695140000
 2105      H      10.0141840000     7.1570330000     7.2777670000
 2106      H      11.3244040000     5.8607050000    14.0520440000
 2107      H      18.1682640000     0.8664840000    -1.7188500000
 2108      H      17.2375780000     1.2984840000     7.5284310000
 2109      H      19.4792710000    -0.4295880000     5.0559890000
 2110      H      19.5088950000    -4.4310190000     7.2965410000
 2111      H      18.0170330000    -6.3930490000     4.4587660000
 2112      H      12.2178810000   -10.7039440000    15.4662530000
 2113      H      10.7255240000   -12.6646530000    12.6285680000
 2114      H      11.6562110000   -13.0966520000     3.3812870000
 2115      H      13.1485680000   -11.1359440000     6.2189720000
 2116      H      12.5873920000   -13.5299740000    -5.8660830000
 2117      H      18.9477190000    -6.8250490000    -4.7885150000
 2118      H      12.1876500000    -6.7020260000    13.2263300000
 2119      H      20.4401880000    -4.8635050000    -1.9513680000
 2120      H       5.8570590000   -17.4075470000    14.3887730000
 2121      H       4.3651970000   -19.3695770000    11.5509990000
 2122      H       5.2958840000   -19.8015770000     2.3037180000
 2123      H       6.7876340000   -17.8403820000     5.1420310000
 2124      H       6.2273570000   -20.2333200000    -6.9430020000
 2125      H       7.7191070000   -18.2721250000    -4.1046880000
 2126      H      14.0800410000   -11.5676860000    -3.0277480000
 2127      H       0.4282050000   -24.5442150000     4.0644850000
 2128      H     -12.7856910000   -20.9274160000     0.5369140000
 2129      H     -15.0272720000   -19.1985100000     3.0088170000
 2130      H     -11.8543970000   -21.3599030000    -8.7109950000
 2131      H     -14.0965850000   -19.6305100000    -6.2384640000
 2132      H     -19.0777910000   -15.5013530000    -8.9616590000
 2133      H     -21.3199790000   -13.7719600000    -6.4891280000
 2134      H     -18.1471040000   -15.9333530000   -18.2089400000
 2135      H     -20.3894040000   -14.2047950000   -15.7358700000
 2136      H     -26.3025780000    -9.6425740000    -9.2122580000
 2137      H     -28.5433720000    -7.9134110000    -6.7397930000
 2138      H     -28.5731080000    -3.9128140000    -8.9798050000
 2139      H     -27.0812460000    -1.9507840000    -6.1420310000
 2140      H     -19.0110690000    -3.3709700000   -17.3820590000
 2141      H     -21.2518640000    -1.6418070000   -14.9095940000
 2142      H     -21.2820950000     2.3601110000   -17.1495180000
 2143      H     -19.7896260000     4.3216540000   -14.3123710000
 2144      H     -14.9219470000     9.0642920000   -16.0731380000
 2145      H     -13.4288040000    11.0252580000   -13.2348920000
 2146      H      -8.5611250000    15.7678950000   -14.9956590000
 2147      H      12.2558770000     5.4289620000     4.8053250000
 2148      H       9.9460690000    -4.9731200000    15.6982330000
 2149      H       9.8629530000    -0.1024990000    13.4553830000
 2150      H      11.3548150000     1.8595310000    16.2931570000
 2151      H      16.8088760000    -2.3482660000    10.2754490000
 2152      H      -4.1302860000    11.2066670000    12.9969380000
 2153      H     -10.4229930000    16.6332170000     3.4989930000
 2154      H      -9.4923070000    16.2012170000    -5.7482880000
 2155      H     -15.8526340000     9.4962920000    -6.8258570000
 2156      H     -20.7203120000     4.7536540000    -5.0650900000
 2157      H     -22.2135680000     2.7918530000    -7.9027980000
 2158      H     -25.8730900000    -5.9955670000   -11.9587140000
 2159      H     -20.4190280000   -10.2033640000   -17.9764220000
 2160      H     -18.9265590000    -8.2418200000   -15.1392750000
 2161      H     -27.2332640000    -9.2105740000     0.0350230000
 2162      H     -29.5044690000    -3.4802370000     0.2663750000
 2163      H     -28.0119330000    -1.5187840000     3.1052500000
 2164      H     -23.1442540000     3.2238530000     1.3444830000
 2165      H     -21.8030170000    -2.0741360000    10.3592450000
 2166      H     -21.6517850000     5.1853970000     4.1816290000
 2167      H     -24.0749410000     3.6558530000    10.5917640000
 2168      H     -17.7140070000    10.3602910000    11.6687050000
 2169      H     -23.9427800000    -4.8860700000     6.2908380000
 2170      H     -23.2117620000    -8.9067870000     9.7643210000
 2171      H     -22.2506650000   -13.3399610000     2.7581530000
 2172      H     -20.0098710000   -15.0691240000     0.2856880000
 2173      H     -11.2897460000    -3.6076950000    16.8663520000
 2174      H       3.0887110000   -17.2987780000   -19.3770600000
 2175      H       9.4490380000   -10.5938530000   -18.2994910000
 2176      H       2.2256450000    -4.7353030000   -18.5501560000
 2177      H       8.5864670000     1.9683000000   -17.4726760000
 2178      H      14.8792860000    -3.4574150000    -7.9752690000
 2179      H      13.0754330000    -2.5813900000     9.9095780000
 2180      H       0.4191030000   -19.2171990000   -14.1570390000
 2181      H      -4.9339270000   -19.5505000000   -14.6802030000
 2182      H     -22.1398260000    -5.7631870000   -11.5940320000
 2183      H     -16.7833200000     9.9282920000     2.4214240000
 2184      H      -9.4833170000    10.8733660000    12.4737740000
 2185      H      13.1865640000     4.9969620000    -4.4419560000
 ----------------------------------------------------------------
 Nuclear Repulsion Energy =     5882892.88728499 hartrees
 There are      291 alpha and      291 beta electrons
 Total job time:  33529.71s(wall), 942947.30s(cpu) 
 Sat Sep 11 00:01:36 2021

        *************************************************************
        *                                                           *
        *  Thank you very much for using Q-Chem.  Have a nice day.  *
        *                                                           *
        *************************************************************


